LAMMPS data file via write_data, version 22 Jul 2025, timestep = 13, units = metal

108 atoms
3 atom types

0 7.668573 xlo xhi
0 6.641179 ylo yhi
0 25.045091 zlo zhi
3.834287 0 0 xy xz yz

Masses

1 63.55
2 63.55
3 63.55

Atoms # atomic

1 3 1.266634 0.718125 0.061732775347598016 0 0 0
4 3 2.572279 2.951724 0.056323034472259045 0 0 0
11 3 2.550524999999998 1.477401 2.121895781753657 0 0 0
19 3 0.01759 0.0024419999999999997 4.188958601474092 0 0 0
2 3 3.8495539999999995 0.7478189999999999 0.056634610320956194 0 0 0
6 3 7.656559999999996 2.939484 0.06013754739023406 0 0 0
7 3 3.843639999999999 5.181431999999999 0.060656440080768086 0 0 0
12 3 5.100132999999997 1.458469 2.126920886595691 0 0 0
14 3 3.8480859999999995 3.675832 2.1177208771383835 0 0 0
15 3 6.404883 3.675903 2.1211398886105783 0 0 0
17 3 5.1146069999999995 5.892650999999999 2.121979670148698 0 0 0
20 3 6.39345 6.634256999999999 4.180844678990053 0 0 0
23 3 3.852881 2.227045 4.195095789939521 0 0 0
9 3 8.960846999999992 5.1550569999999984 0.05061823812146263 0 0 0
10 3 7.6724769999999936 1.4601679999999997 2.1231097430620443 0 0 0
13 3 8.939512 3.7025069999999998 2.114129152696614 0 0 0
16 3 10.213959 5.889342 2.1223608997405896 0 0 0
18 3 7.669687999999999 5.912452999999999 2.111104791913357 0 0 0
22 3 8.944326999999992 2.231482 4.1798418810255065 0 0 0
27 3 7.669409999999994 4.430369 4.186533207707638 0 0 0
28 3 1.2842249999999997 0.755322 6.247336559718128 0 0 0
29 3 3.816471 0.720486 6.247731042155634 0 0 0
31 3 2.5543049999999994 2.9575959999999997 6.251546131059161 0 0 0
38 3 2.5493029999999983 1.478845 8.314617959244305 0 0 0
24 3 6.386968999999998 2.218392 4.188782742376048 0 0 0
26 3 5.129714 4.432024999999999 4.179873335918051 0 0 0
30 3 6.378398999999996 0.718415 6.249855585384147 0 0 0
32 3 5.122941 2.969104 6.257412634793792 0 0 0
34 3 3.8525229999999975 5.153755 6.2508347477600275 0 0 0
35 3 6.395274999999996 5.154485 6.249292093071182 0 0 0
37 3 7.668069 1.479514 8.311512086597977 0 0 0
39 3 5.094692999999997 1.473952 8.312075273155246 0 0 0
45 3 7.666925999999997 5.905396 8.312546548222942 0 0 0
21 3 8.935967 6.633538 4.186098483137664 0 0 0
25 3 10.226634999999993 4.444100999999998 4.183059995878887 0 0 0
33 3 7.671754999999999 2.940684 6.254778881696496 0 0 0
36 3 8.959145 5.163904 6.251271232483748 0 0 0
41 3 3.8282129999999994 3.6731229999999995 8.323766376052998 0 0 0
46 3 0.0065829999999999994 0.0035319999999999995 10.37080615423881 0 0 0
49 3 1.291706 2.205989 10.382343686981987 0 0 0
50 3 3.8189009999999985 2.1984659999999994 10.385931859204764 0 0 0
52 3 2.566823999999999 4.43584 10.379032186840046 0 0 0
42 3 6.374991 3.7066549999999996 8.325168677261171 0 0 0
44 3 5.107572999999997 5.891053999999999 8.306977574104462 0 0 0
47 3 6.371287999999996 6.627749999999998 10.369168251887347 0 0 0
48 3 5.096612 0.0025699999999999994 10.37643799278911 0 0 0
51 3 6.406490999999994 2.1943569999999997 10.375304579296143 0 0 0
53 3 5.107205 4.433736 10.388808850068164 0 0 0
54 3 7.6530069999999935 4.436550999999999 10.379853236731893 0 0 0
59 3 5.873051 2.9473689999999997 12.573821015582645 0 0 0
61 3 4.612945 5.171465 12.5947566982827 0 0 0
62 3 7.166993999999999 5.172595 12.582629657565331 0 0 0
40 3 8.930211 3.6972449999999997 8.324117135593022 0 0 0
43 3 10.211624999999993 5.894352999999998 8.317944873393355 0 0 0
60 3 8.418180999999993 2.964101 12.570780260207254 0 0 0
63 3 9.729412999999992 5.1626829999999995 12.581504316244029 0 0 0
55 3 2.038649 0.718165 12.575279300577465 0 0 0
58 3 3.322329 2.959565 12.58176121196162 0 0 0
65 3 3.334569999999998 1.4724739999999998 14.638777941674855 0 0 0
56 3 4.594984 0.7245089999999998 12.58114713313325 0 0 0
57 3 7.143335999999999 0.728764 12.571621217333364 0 0 0
66 3 5.884538999999997 1.457793 14.63894720978611 0 0 0
68 3 4.611714 3.6754009999999995 14.64564611074854 0 0 0
69 3 7.170831999999995 3.671307 14.64511392194595 0 0 0
71 3 5.894468 5.902324 14.644699952202428 0 0 0
74 3 7.148207 6.624139 16.709957386948325 0 0 0
77 3 4.602202999999999 2.205331 16.710563831526866 0 0 0
80 3 5.873737 4.443365 16.706807237915665 0 0 0
64 3 8.448717999999992 1.485601 14.630095506183368 0 0 0
67 3 9.726365 3.700098 14.644597797342334 0 0 0
70 3 10.974004 5.918169 14.643291505204283 0 0 0
72 3 8.418443 5.896855 14.643089794906139 0 0 0
75 3 9.699259999999999 6.640474 16.708913478506354 0 0 0
76 3 2.042340999999998 2.200241 16.696499944152 0 0 0
79 3 3.333884999999998 4.431415 16.71015316841466 0 0 0
82 3 2.0535799999999984 0.7517379999999999 18.766339977504316 0 0 0
85 3 3.306469 2.960323 18.76856779358729 0 0 0
73 3 4.582359 6.626236 16.70178839533569 0 0 0
78 3 7.156331999999999 2.2108859999999995 16.70445238816208 0 0 0
83 3 4.599020999999996 0.7367139999999999 18.771350767751983 0 0 0
84 3 7.155521999999996 0.7322639999999999 18.76983489347092 0 0 0
86 3 5.892025 2.943937 18.770949105954887 0 0 0
88 3 4.618272 5.175886 18.78119139234231 0 0 0
89 3 7.146775 5.168922 18.77664179165078 0 0 0
96 3 7.149475 3.6916039999999994 20.83321189272533 0 0 0
81 3 8.441744 4.439264 16.713630109816073 0 0 0
87 3 8.445998 2.939095 18.773580156761884 0 0 0
90 3 9.711219 5.169123 18.776314997007855 0 0 0
91 3 8.425798 1.4611 20.838726138534337 0 0 0
97 3 10.976916 5.901872 20.843379703100577 0 0 0
99 3 8.430119 5.915762999999999 20.833351161782446 0 0 0
92 3 3.3262080000000003 1.463859 20.83254366205933 0 0 0
101 3 3.342503999999998 0.011855 22.904217749134794 0 0 0
103 3 2.061452 2.19443 22.901180200863383 0 0 0
106 3 3.311455 4.426283 22.914076256140174 0 0 0
3 3 6.385791 0.7278449999999999 0.05995714821980078 0 0 1
5 3 5.129082999999996 2.932946 0.055748667305613245 0 0 1
8 3 6.393668999999999 5.156833 0.059629936981086464 0 0 1
93 3 5.887322 1.477827 20.839404257704746 0 0 0
95 3 4.584433 3.700198 20.83887641301923 0 0 0
98 3 5.882353999999997 5.916464 20.840744725423434 0 0 0
100 3 4.613657 6.635426999999998 22.899000672823366 0 0 0
104 3 4.612016 2.207963 22.894223534254426 0 0 0
105 3 7.160174999999996 2.231931 22.897039711857282 0 0 0
107 3 5.888978999999997 4.441802 22.8961133927672 0 0 0
94 3 9.72223 3.6882599999999996 20.84256425263857 0 0 0
102 3 9.705672 6.62271 22.90532432462836 0 0 0
108 3 8.446983 4.44045 22.890034566718324 0 0 0

Velocities

1 0 0 0
4 0 0 0
11 0 0 0
19 0 0 0
2 0 0 0
6 0 0 0
7 0 0 0
12 0 0 0
14 0 0 0
15 0 0 0
17 0 0 0
20 0 0 0
23 0 0 0
9 0 0 0
10 0 0 0
13 0 0 0
16 0 0 0
18 0 0 0
22 0 0 0
27 0 0 0
28 0 0 0
29 0 0 0
31 0 0 0
38 0 0 0
24 0 0 0
26 0 0 0
30 0 0 0
32 0 0 0
34 0 0 0
35 0 0 0
37 0 0 0
39 0 0 0
45 0 0 0
21 0 0 0
25 0 0 0
33 0 0 0
36 0 0 0
41 0 0 0
46 0 0 0
49 0 0 0
50 0 0 0
52 0 0 0
42 0 0 0
44 0 0 0
47 0 0 0
48 0 0 0
51 0 0 0
53 0 0 0
54 0 0 0
59 0 0 0
61 0 0 0
62 0 0 0
40 0 0 0
43 0 0 0
60 0 0 0
63 0 0 0
55 0 0 0
58 0 0 0
65 0 0 0
56 0 0 0
57 0 0 0
66 0 0 0
68 0 0 0
69 0 0 0
71 0 0 0
74 0 0 0
77 0 0 0
80 0 0 0
64 0 0 0
67 0 0 0
70 0 0 0
72 0 0 0
75 0 0 0
76 0 0 0
79 0 0 0
82 0 0 0
85 0 0 0
73 0 0 0
78 0 0 0
83 0 0 0
84 0 0 0
86 0 0 0
88 0 0 0
89 0 0 0
96 0 0 0
81 0 0 0
87 0 0 0
90 0 0 0
91 0 0 0
97 0 0 0
99 0 0 0
92 0 0 0
101 0 0 0
103 0 0 0
106 0 0 0
3 0 0 0
5 0 0 0
8 0 0 0
93 0 0 0
95 0 0 0
98 0 0 0
100 0 0 0
104 0 0 0
105 0 0 0
107 0 0 0
94 0 0 0
102 0 0 0
108 0 0 0
