LAMMPS data file via write_data, version 22 Jul 2025, timestep = 14, units = metal

108 atoms
3 atom types

0 7.668573 xlo xhi
0 6.641179 ylo yhi
0 25.045091 zlo zhi
3.834287 0 0 xy xz yz

Masses

1 63.55
2 63.55
3 63.55

Atoms # atomic

2 3 3.824911 0.734604 0.02777773459645557 0 0 0
7 3 3.818138000000001 5.16792 0.021039552505408683 0 0 0
11 3 2.562927999999998 1.479923 2.1048956084151222 0 0 0
14 3 3.829409 3.7021169999999994 2.100450945657491 0 0 0
8 3 6.391286999999997 5.154684 0.04196203537549278 0 0 0
10 3 7.656396999999997 1.458166 2.1017253918877006 0 0 0
12 3 5.100482 1.4689819999999996 2.1008297551639186 0 0 0
15 3 6.409632 3.672531 2.114773898518926 0 0 0
17 3 5.119695 5.912196 2.102755672429942 0 0 0
21 3 5.124394999999996 0.010449 4.179047325136089 0 0 0
24 3 6.398935 2.1956359999999995 4.185736591816959 0 0 0
26 3 5.097132 4.426676 4.177648398090216 0 0 0
27 3 7.665464 4.429697 4.187042198959739 0 0 0
13 3 8.937289 3.709013 2.11258604375763 0 0 0
16 3 10.238565 5.894543 2.097630723078893 0 0 0
18 3 7.669869 5.89682 2.1086488508225596 0 0 0
20 3 2.568732 0.002374 4.175864076346087 0 0 0
22 3 1.2775729999999985 2.200031 4.17785728235615 0 0 0
25 3 2.5703259999999983 4.44031 4.18312075120398 0 0 0
28 3 1.293036999999999 0.7313829999999999 6.252602427576425 0 0 0
29 3 3.826636999999999 0.7496669999999998 6.250096997914041 0 0 0
31 3 2.575956 2.957444 6.250776776923184 0 0 0
34 3 3.829823 5.185219 6.262518344069409 0 0 0
19 3 7.651018999999998 0.006924 4.18382765121025 0 0 0
23 3 3.8371779999999998 2.213996 4.173585418777667 0 0 0
30 3 6.375653999999996 0.730185 6.2666844271010955 0 0 0
32 3 5.110937999999996 2.949216 6.25772534228494 0 0 0
33 3 7.667275999999994 2.966775 6.254198831148416 0 0 0
35 3 6.375841999999999 5.166363 6.250797374411678 0 0 0
37 3 7.6671869999999975 1.482873 8.321941495964477 0 0 0
44 3 5.130704999999999 5.922775 8.331408476531575 0 0 0
36 3 8.945405 5.156296 6.2595501098352 0 0 0
40 3 8.953162 3.691113 8.33086134716254 0 0 0
38 3 2.57088 1.479765 8.331375306630505 0 0 0
41 3 3.823162 3.709437 8.334035391332858 0 0 0
49 3 1.276553999999999 2.1964189999999997 10.398787131784617 0 0 0
50 3 3.816512999999998 2.228309 10.407818965765966 0 0 0
52 3 2.554808 4.413772 10.410605567761154 0 0 0
55 3 3.3380429999999963 0.726397 12.551513688839934 0 0 0
39 3 5.0982829999999995 1.475126 8.341666910616608 0 0 0
42 3 6.388033 3.688031 8.329175778489168 0 0 0
45 3 7.659969 5.910338 8.320398982589865 0 0 0
46 3 3.8430339999999994 6.640709 10.401357085479225 0 0 0
47 3 6.391604999999998 6.626657999999998 10.40606928481504 0 0 0
51 3 6.395981999999996 2.228725 10.399676284661064 0 0 0
53 3 5.127938 4.441861 10.407386021644061 0 0 0
58 3 4.612652999999996 2.937808 12.555885227247275 0 0 0
61 3 5.892322 5.1831 12.56273157653627 0 0 0
43 3 10.243067 5.919052 8.343547665404548 0 0 0
48 3 8.931522999999995 6.629573 10.409466012110036 0 0 0
54 3 7.682500999999997 4.437511 10.396266126785132 0 0 0
62 3 8.433774 5.155939999999999 12.558518743116714 0 0 0
57 3 0.7535539999999996 0.7239809999999998 12.558375394019466 0 0 0
60 3 2.0414059999999994 2.9460479999999993 12.547280437366819 0 0 0
63 3 3.3123959999999997 5.178694 12.557824686080924 0 0 0
64 3 2.038792 1.462518 14.626000707406563 0 0 0
67 3 3.3041029999999996 3.679516 14.614654804145186 0 0 0
73 3 2.052894999999998 0.004746 16.71124667545808 0 0 0
76 3 3.3302069999999997 2.230855 16.703166285239565 0 0 0
56 3 5.875726999999997 0.7542219999999998 12.55310093372742 0 0 0
59 3 7.163454999999996 2.9475309999999997 12.555427725517498 0 0 0
65 3 4.581147999999999 1.455838 14.631975272761059 0 0 0
66 3 7.159257 1.458343 14.622668088520228 0 0 0
68 3 5.876745999999999 3.670829 14.62581015003933 0 0 0
70 3 4.606711 5.887672 14.635763120849372 0 0 0
71 3 7.172276999999999 5.893104 14.631295101472501 0 0 0
74 3 4.588462 0.00704 16.712620951720602 0 0 0
77 3 5.881199999999996 2.203032 16.70258921360096 0 0 0
79 3 4.583886999999999 4.407902999999999 16.701152193815417 0 0 0
80 3 7.142976 4.4368 16.696218577651507 0 0 0
69 3 8.447941999999998 3.67208 14.631081701992413 0 0 0
72 3 9.69652 5.891168 14.63420793949063 0 0 0
78 3 8.418589 2.216675 16.69858018074554 0 0 0
82 3 3.3265879999999983 0.754037 18.784306555296844 0 0 0
84 3 0.7487119999999996 0.7527979999999999 18.779980662388983 0 0 0
87 3 2.038796 2.954268 18.778099659777475 0 0 0
90 3 3.3350549999999983 5.154527 18.776736083677555 0 0 0
94 3 3.3068410000000004 3.703515 20.857472216709105 0 0 0
75 3 7.176939 0.018525 16.701919120048135 0 0 0
83 3 5.878772 0.733763 18.776334617868596 0 0 0
85 3 4.6028049999999965 2.944645 18.790976596584127 0 0 0
86 3 7.169798999999997 2.951102 18.77331606496263 0 0 0
88 3 5.894727 5.153403 18.776924575349437 0 0 0
92 3 4.618033999999996 1.4581559999999998 20.859101776468066 0 0 0
95 3 5.883113999999999 3.7055649999999996 20.8557621009629 0 0 0
81 3 9.725971999999999 4.43277 16.705898940504728 0 0 0
89 3 8.434020999999992 5.1599829999999995 18.779148369045917 0 0 0
96 3 8.417306999999997 3.6749969999999994 20.856976289010085 0 0 0
1 3 1.271453 0.757908 0.029973103040252528 0 0 1
4 3 2.562708 2.933694 0.035382011130532506 0 0 1
91 3 2.0382989999999985 1.4658929999999994 20.851977349487296 0 0 0
103 3 3.3037779999999994 2.203138 22.916165108365924 0 0 0
3 3 6.371448999999997 0.7523929999999998 0.02743030469318793 0 0 1
5 3 5.109785999999996 2.968484999999999 0.035160364324843305 0 0 1
93 3 7.153151999999997 1.4924149999999996 20.857466423433834 0 0 0
97 3 4.606117999999997 5.915554999999999 20.847812419775615 0 0 0
98 3 7.175699999999996 5.9061 20.856425976413206 0 0 0
100 3 5.873502 6.638894999999998 22.930570808302377 0 0 0
102 3 7.164540999999996 0.005622 22.926327681182304 0 0 0
104 3 5.865592999999996 2.194763 22.931335665812718 0 0 0
106 3 4.617791 4.430238999999999 22.92332247879946 0 0 0
107 3 7.151787999999999 4.428562 22.931738960032668 0 0 0
6 3 7.687193999999995 2.958614 0.04027804349308515 0 0 1
9 3 8.929873999999998 5.173816 0.03155070718692774 0 0 1
99 3 9.721926 5.912265 20.851773301367373 0 0 0
101 3 8.442159999999998 6.628656999999998 22.931069077671392 0 0 0
105 3 8.43287 2.233081 22.927330160851707 0 0 0
108 3 9.722521 4.432422999999999 22.93188567571971 0 0 0

Velocities

2 0 0 0
7 0 0 0
11 0 0 0
14 0 0 0
8 0 0 0
10 0 0 0
12 0 0 0
15 0 0 0
17 0 0 0
21 0 0 0
24 0 0 0
26 0 0 0
27 0 0 0
13 0 0 0
16 0 0 0
18 0 0 0
20 0 0 0
22 0 0 0
25 0 0 0
28 0 0 0
29 0 0 0
31 0 0 0
34 0 0 0
19 0 0 0
23 0 0 0
30 0 0 0
32 0 0 0
33 0 0 0
35 0 0 0
37 0 0 0
44 0 0 0
36 0 0 0
40 0 0 0
38 0 0 0
41 0 0 0
49 0 0 0
50 0 0 0
52 0 0 0
55 0 0 0
39 0 0 0
42 0 0 0
45 0 0 0
46 0 0 0
47 0 0 0
51 0 0 0
53 0 0 0
58 0 0 0
61 0 0 0
43 0 0 0
48 0 0 0
54 0 0 0
62 0 0 0
57 0 0 0
60 0 0 0
63 0 0 0
64 0 0 0
67 0 0 0
73 0 0 0
76 0 0 0
56 0 0 0
59 0 0 0
65 0 0 0
66 0 0 0
68 0 0 0
70 0 0 0
71 0 0 0
74 0 0 0
77 0 0 0
79 0 0 0
80 0 0 0
69 0 0 0
72 0 0 0
78 0 0 0
82 0 0 0
84 0 0 0
87 0 0 0
90 0 0 0
94 0 0 0
75 0 0 0
83 0 0 0
85 0 0 0
86 0 0 0
88 0 0 0
92 0 0 0
95 0 0 0
81 0 0 0
89 0 0 0
96 0 0 0
1 0 0 0
4 0 0 0
91 0 0 0
103 0 0 0
3 0 0 0
5 0 0 0
93 0 0 0
97 0 0 0
98 0 0 0
100 0 0 0
102 0 0 0
104 0 0 0
106 0 0 0
107 0 0 0
6 0 0 0
9 0 0 0
99 0 0 0
101 0 0 0
105 0 0 0
108 0 0 0
