LAMMPS data file via write_data, version 22 Jul 2025, timestep = 14, units = metal

108 atoms
3 atom types

0 7.668573 xlo xhi
0 6.641179 ylo yhi
0 25.045091 zlo zhi
3.834287 0 0 xy xz yz

Masses

1 63.55
2 63.55
3 63.55

Atoms # atomic

1 3 1.2936459999999999 0.7563369999999999 0.07340793407156546 0 0 0
11 3 2.563401 1.473419 2.1270215032279407 0 0 0
14 3 3.830795 3.695464 2.1335292588540433 0 0 0
3 3 6.383488999999996 0.724774 0.08240599379952218 0 0 0
5 3 5.0967009999999995 2.9479959999999994 0.0748113698059998 0 0 0
6 3 7.6528089999999995 2.949841 0.06525345837279675 0 0 0
12 3 5.1049969999999965 1.486673 2.130989680500082 0 0 0
15 3 6.403014999999999 3.679569 2.126665011625871 0 0 0
17 3 5.096383999999999 5.893198999999999 2.126070316176675 0 0 0
24 3 6.404791999999999 2.211823 4.187840161083164 0 0 0
26 3 5.120544 4.429019 4.185200693414381 0 0 0
9 3 8.962737 5.155260999999999 0.06701914386292657 0 0 0
10 3 7.6713769999999935 1.4787449999999998 2.123717017967014 0 0 0
13 3 8.932979999999993 3.680251 2.131511183867815 0 0 0
16 3 10.211952 5.890523 2.1316577466308524 0 0 0
18 3 7.678581 5.901395 2.132300996439359 0 0 0
25 3 10.226136999999998 4.446796999999999 4.1858254025613695 0 0 0
27 3 7.668603999999993 4.4212 4.19451281084141 0 0 0
20 3 2.5741169999999984 0.01633 4.183693037182218 0 0 0
22 3 1.285320999999999 2.195656 4.187446463033813 0 0 0
23 3 3.8322769999999995 2.220396 4.186926938448925 0 0 0
28 3 1.268365 0.750001 6.247317855468153 0 0 0
29 3 3.818109999999998 0.747052 6.248974092842025 0 0 0
31 3 2.567542 2.9705019999999998 6.24806103581569 0 0 0
34 3 3.828703999999999 5.174796 6.249966249437576 0 0 0
21 3 5.117295999999996 0.019538999999999997 4.190660113205943 0 0 0
30 3 6.396037999999996 0.738528 6.251865423630427 0 0 0
32 3 5.100892 2.959462 6.238571031243372 0 0 0
35 3 6.379593999999999 5.173951999999999 6.24725140050302 0 0 0
39 3 5.114012999999996 1.4849029999999996 8.305706461426288 0 0 0
41 3 3.8525970000000003 3.685484 8.302839459913256 0 0 0
44 3 5.119579 5.902062 8.305936246310964 0 0 0
19 3 7.671232999999997 0.007225 4.184561028554349 0 0 0
33 3 7.669611 2.943471 6.243750613591364 0 0 0
36 3 8.961319999999997 5.179561999999998 6.239783646723118 0 0 0
37 3 7.677542 1.4667819999999998 8.308264194425549 0 0 0
45 3 7.683199 5.922019 8.30033512226971 0 0 0
38 3 2.552024 1.4747549999999998 8.312105288393731 0 0 0
52 3 2.5667580000000005 4.420222 10.349232677654626 0 0 0
55 3 1.785688 1.6120049999999997 12.590639331496291 0 0 0
58 3 3.0652739999999996 3.8377879999999998 12.589627170979774 0 0 0
42 3 6.397465999999997 3.678155999999999 8.29831906090169 0 0 0
47 3 6.3730499999999966 6.631529 10.363334864894396 0 0 0
50 3 3.850403 2.2267299999999994 10.36175249675776 0 0 0
51 3 6.401133 2.2269669999999997 10.365255295044483 0 0 0
53 3 5.126627 4.415215 10.360614478702749 0 0 0
56 3 4.335902 1.621346 12.597316360933794 0 0 0
57 3 6.90759 1.616574 12.599001777196312 0 0 0
59 3 5.635362999999996 3.849169 12.603436965851845 0 0 0
40 3 8.927454999999993 3.700521 8.294528054031092 0 0 0
43 3 10.205124999999995 5.9044599999999985 8.310526932787868 0 0 0
46 3 7.672343999999994 0.018707999999999995 10.360797262557154 0 0 0
48 3 8.945488999999993 6.633628 10.366301230425789 0 0 0
49 3 8.944184999999994 2.229538 10.361300667359606 0 0 0
54 3 7.684514999999993 4.440126 10.351752173823229 0 0 0
65 3 3.073765 2.37836 14.647588547461051 0 0 0
71 3 1.803247 0.15719699999999998 14.646778285738426 0 0 0
74 3 3.053206 0.902755 16.707637078587624 0 0 0
76 3 1.799902 3.0815439999999996 16.714104449524914 0 0 0
61 3 4.341638 6.055606 12.594281125784324 0 0 0
62 3 6.901052999999997 6.053638 12.597835128479293 0 0 0
66 3 5.621596 2.344907 14.648876999071685 0 0 0
68 3 4.344771 4.591323 14.648128666050171 0 0 0
69 3 6.920606999999996 4.559686999999999 14.652214374001629 0 0 0
70 3 6.885897999999994 0.137513 14.654584994263267 0 0 0
72 3 4.350735999999997 0.138876 14.655677204256929 0 0 0
77 3 4.357704999999997 3.1181349999999997 16.7063834861715 0 0 0
60 3 8.185787000000001 3.8453129999999995 12.585953918938133 0 0 0
63 3 9.447977 6.041083 12.598081291420959 0 0 0
64 3 8.18977 2.380347 14.649104835087822 0 0 0
67 3 9.462619 4.570637 14.654014969159032 0 0 0
79 3 10.727253 5.307595 16.710422387537317 0 0 0
81 3 8.179538999999993 5.300054999999999 16.71457030836425 0 0 0
73 3 0.5200960000000004 0.891195 16.705046407635102 0 0 0
82 3 1.7868 1.63189 18.776376140928786 0 0 0
85 3 3.0683149999999997 3.8566689999999997 18.77043075167884 0 0 0
98 3 1.8074169999999987 0.145817 20.824401677019853 0 0 0
75 3 5.607410999999994 0.8673849999999999 16.711212102906966 0 0 0
78 3 6.882882 3.0943249999999995 16.708961620355897 0 0 0
80 3 5.631508999999997 5.324987 16.70107183721881 0 0 0
83 3 4.3385649999999965 1.6416449999999998 18.76126101963464 0 0 0
84 3 6.892450999999997 1.61508 18.756867382788194 0 0 0
86 3 5.631608999999999 3.849813 18.768331935561477 0 0 0
88 3 4.361037 6.037952 18.770738871118795 0 0 0
89 3 6.914620999999997 6.053469999999999 18.761917234476268 0 0 0
99 3 4.343598 0.147428 20.826604735128328 0 0 0
87 3 8.182282999999995 3.82304 18.772585415627677 0 0 0
90 3 9.471994999999996 6.053342999999998 18.769049964683774 0 0 0
2 3 3.820336999999998 0.7456099999999999 0.07500433551649759 0 0 1
4 3 2.550387999999998 2.9689819999999996 0.0700690173824577 0 0 1
7 3 3.8195799999999984 5.149003999999999 0.07201467926670731 0 0 1
92 3 3.076726 2.354671 20.826795404521004 0 0 0
100 3 0.5282800000000003 0.8761969999999999 22.880281432457824 0 0 0
101 3 3.062962999999998 0.884059 22.884159087206726 0 0 0
106 3 3.062688 5.300932 22.88230023509342 0 0 0
8 3 6.403982 5.183614 0.08244184411869686 0 0 1
93 3 5.626174999999994 2.3462649999999994 20.818193725615956 0 0 0
95 3 4.35238 4.578705 20.83461140680091 0 0 0
96 3 6.882905999999999 4.577706 20.824182900990134 0 0 0
97 3 6.882564999999996 0.161221 20.831437485136224 0 0 0
102 3 5.626130999999999 0.904635 22.89209165621961 0 0 0
104 3 4.348022 3.087697 22.878486650172604 0 0 0
105 3 6.910646999999996 3.094293 22.87126724605859 0 0 0
107 3 5.638554999999997 5.307677 22.891998818771906 0 0 0
91 3 8.164344999999994 2.346762 20.82416140107703 0 0 0
94 3 9.475215 4.59082 20.821315266748172 0 0 0
103 3 9.450705999999993 3.112427999999999 22.87395136546253 0 0 0
108 3 8.183801999999993 5.30631 22.87779570780027 0 0 0

Velocities

1 0 0 0
11 0 0 0
14 0 0 0
3 0 0 0
5 0 0 0
6 0 0 0
12 0 0 0
15 0 0 0
17 0 0 0
24 0 0 0
26 0 0 0
9 0 0 0
10 0 0 0
13 0 0 0
16 0 0 0
18 0 0 0
25 0 0 0
27 0 0 0
20 0 0 0
22 0 0 0
23 0 0 0
28 0 0 0
29 0 0 0
31 0 0 0
34 0 0 0
21 0 0 0
30 0 0 0
32 0 0 0
35 0 0 0
39 0 0 0
41 0 0 0
44 0 0 0
19 0 0 0
33 0 0 0
36 0 0 0
37 0 0 0
45 0 0 0
38 0 0 0
52 0 0 0
55 0 0 0
58 0 0 0
42 0 0 0
47 0 0 0
50 0 0 0
51 0 0 0
53 0 0 0
56 0 0 0
57 0 0 0
59 0 0 0
40 0 0 0
43 0 0 0
46 0 0 0
48 0 0 0
49 0 0 0
54 0 0 0
65 0 0 0
71 0 0 0
74 0 0 0
76 0 0 0
61 0 0 0
62 0 0 0
66 0 0 0
68 0 0 0
69 0 0 0
70 0 0 0
72 0 0 0
77 0 0 0
60 0 0 0
63 0 0 0
64 0 0 0
67 0 0 0
79 0 0 0
81 0 0 0
73 0 0 0
82 0 0 0
85 0 0 0
98 0 0 0
75 0 0 0
78 0 0 0
80 0 0 0
83 0 0 0
84 0 0 0
86 0 0 0
88 0 0 0
89 0 0 0
99 0 0 0
87 0 0 0
90 0 0 0
2 0 0 0
4 0 0 0
7 0 0 0
92 0 0 0
100 0 0 0
101 0 0 0
106 0 0 0
8 0 0 0
93 0 0 0
95 0 0 0
96 0 0 0
97 0 0 0
102 0 0 0
104 0 0 0
105 0 0 0
107 0 0 0
91 0 0 0
94 0 0 0
103 0 0 0
108 0 0 0
