LAMMPS data file via write_data, version 22 Jul 2025, timestep = 17, units = metal

108 atoms
3 atom types

0 7.668573 xlo xhi
0 6.641179 ylo yhi
0 25.045091 zlo zhi
3.834287 0 0 xy xz yz

Masses

1 63.55
2 63.55
3 63.55

Atoms # atomic

1 3 1.2874599999999998 0.7235869999999999 0.15172163205961448 0 0 0
4 3 2.5556029999999983 2.944851999999999 0.14157258357229857 0 0 0
11 3 2.570926 1.487457 2.202458943600919 0 0 0
25 3 2.5599719999999984 4.432422999999999 4.243058932147212 0 0 0
2 3 3.8422069999999997 0.745924 0.13617818094806483 0 0 0
3 3 6.37378 0.750556 0.13618703792867878 0 0 0
8 3 6.39085 5.158122 0.14360850647637893 0 0 0
10 3 7.661068999999997 1.473164 2.185764692923979 0 0 0
12 3 5.100894 1.479659 2.196466844853837 0 0 0
14 3 3.839913 3.686154 2.1878553059466155 0 0 0
15 3 6.391266999999999 3.6755139999999997 2.193769822224533 0 0 0
17 3 5.09388 5.888143 2.1939082783014516 0 0 0
18 3 7.654280999999997 5.918219999999999 2.2007949587656745 0 0 0
20 3 6.374741999999996 6.621606 4.258188364989333 0 0 0
21 3 5.1263089999999965 0.017252 4.26009882160711 0 0 0
24 3 6.408862 2.193945 4.25421856896562 0 0 0
6 3 7.688458 2.953556 0.13504157693040564 0 0 0
13 3 8.94089 3.681192 2.1898915066380957 0 0 0
16 3 10.21401 5.901786999999998 2.1861689724617084 0 0 0
28 3 1.2649619999999997 0.75356 6.308633754686165 0 0 0
29 3 3.8247899999999984 0.744236 6.310499488820686 0 0 0
31 3 2.5758599999999983 2.947243999999999 6.307545796573095 0 0 0
34 3 3.8262359999999997 5.182791 6.311722447372383 0 0 0
41 3 3.8233789999999983 3.683095999999999 8.36832751288983 0 0 0
19 3 7.655453 0.018177 4.249375975853405 0 0 0
23 3 3.849985999999997 2.2289539999999994 4.25120603526406 0 0 0
26 3 5.107837 4.440691 4.256408265339475 0 0 0
30 3 6.393810999999997 0.7490249999999999 6.327873912413161 0 0 0
32 3 5.116635999999996 2.93554 6.305061798122732 0 0 0
35 3 6.392685 5.146634999999999 6.318358078381931 0 0 0
44 3 5.11309 5.919831 8.37486990734403 0 0 0
22 3 8.953634999999995 2.231621 4.24824000267105 0 0 0
27 3 7.675936999999998 4.414340999999999 4.250811389258017 0 0 0
33 3 7.686963999999996 2.94795 6.315616132826622 0 0 0
36 3 8.962941999999998 5.149134 6.308051702656601 0 0 0
40 3 8.944439 3.6891149999999997 8.373940482622285 0 0 0
38 3 2.5592539999999984 1.487305 8.376125138716949 0 0 0
55 3 2.548109 1.178166 12.52311370371517 0 0 0
39 3 5.117661 1.491987 8.377003463528226 0 0 0
42 3 6.375100999999994 3.671374 8.36859323128647 0 0 0
46 3 7.6559629999999945 0.015173 10.432178637790216 0 0 0
47 3 6.409787999999999 6.636186999999998 10.429373496585605 0 0 0
48 3 5.121909 0.011204 10.428720183350446 0 0 0
50 3 3.8396129999999995 2.213871 10.433809629298286 0 0 0
51 3 6.410423 2.203017 10.437742258177657 0 0 0
53 3 5.129631999999999 4.411463999999999 10.42348887750653 0 0 0
54 3 7.660691 4.432555 10.424989547140825 0 0 0
56 3 5.127772999999997 1.1801909999999998 12.5311853355143 0 0 0
58 3 3.8374579999999963 3.3963419999999998 12.523265889940227 0 0 0
61 3 5.0948939999999965 5.597353999999999 12.521044841139725 0 0 0
37 3 7.681596 1.476988 8.377564548113241 0 0 0
43 3 10.229508 5.898956 8.375081296070997 0 0 0
45 3 7.673499999999996 5.906436 8.363969116677731 0 0 0
49 3 8.945999 2.2211279999999998 10.439768927824733 0 0 0
52 3 10.223413999999993 4.427881999999999 10.43188708042091 0 0 0
63 3 10.218336999999993 5.608491999999998 12.528098257380815 0 0 0
64 3 1.279402 1.899602 14.590226977295282 0 0 0
67 3 2.5759060000000007 4.119447 14.58647595021637 0 0 0
70 3 3.8201269999999985 6.330938 14.595125321401085 0 0 0
73 3 1.291779999999999 0.44166 16.655600836119405 0 0 0
76 3 2.536613 2.661571 16.63948063414921 0 0 0
59 3 6.386437999999993 3.386211 12.530935187190183 0 0 0
62 3 7.658246 5.595107 12.534747644841426 0 0 0
65 3 3.851445 1.9048509999999996 14.584148664185221 0 0 0
66 3 6.395797999999999 1.9337609999999998 14.58628511294844 0 0 0
68 3 5.097642999999996 4.124151 14.583463066080842 0 0 0
71 3 6.375897 6.3587229999999995 14.578886503674191 0 0 0
75 3 6.407213999999999 0.446211 16.648246500843356 0 0 0
77 3 5.123056999999997 2.6619499999999996 16.64796284030204 0 0 0
78 3 7.6496549999999965 2.636908 16.655362582311454 0 0 0
57 3 7.683427999999996 1.163372 12.541106619564786 0 0 0
60 3 8.946827999999993 3.407301 12.535347869782182 0 0 0
69 3 7.679255000000001 4.124192 14.599233352043026 0 0 0
72 3 8.954601 6.332436999999999 14.592799748670826 0 0 0
74 3 3.821280999999998 0.45381799999999994 16.648572006525736 0 0 0
82 3 2.561591 1.198 18.713387149936146 0 0 0
85 3 3.831957 3.3918099999999995 18.70282692808585 0 0 0
94 3 2.571521 4.120255 20.766977361803047 0 0 0
97 3 3.832674 6.357203 20.76552394008147 0 0 0
79 3 3.8397999999999994 4.860506 16.65376010279273 0 0 0
80 3 6.374332000000001 4.882525 16.63802342159569 0 0 0
83 3 5.12534 1.1851069999999997 18.709879735852294 0 0 0
84 3 7.662934999999999 1.1831259999999997 18.70985325239294 0 0 0
86 3 6.380271 3.4099379999999995 18.709807369648683 0 0 0
88 3 5.111822999999998 5.607206 18.709415314238708 0 0 0
89 3 7.660303000000001 5.613427 18.70637664091935 0 0 0
95 3 5.123681999999996 4.152046 20.766293094532426 0 0 0
81 3 8.952491 4.870925 16.652032746970413 0 0 0
87 3 8.958649999999995 3.387791 18.707327461371225 0 0 0
90 3 10.219989 5.602834 18.712785962276598 0 0 0
99 3 8.934801999999992 6.340753 20.770129417692008 0 0 0
7 3 3.824551999999999 5.156757 0.13105187176553976 0 0 1
91 3 1.2691939999999997 1.9092819999999997 20.77479038807691 0 0 0
92 3 3.817378999999999 1.9346629999999996 20.767101059307997 0 0 0
100 3 1.259558 0.45387199999999994 22.832841210091395 0 0 0
101 3 3.829835999999997 0.437141 22.822654924807694 0 0 0
103 3 2.556432 2.6726339999999995 22.827626042241448 0 0 0
5 3 5.105403 2.936133 0.12957800944044773 0 0 1
93 3 6.401914999999996 1.9102289999999997 20.767641344707243 0 0 0
98 3 6.3841529999999995 6.34581 20.773649386999942 0 0 0
102 3 6.40845 0.4424429999999999 22.823517095667256 0 0 0
104 3 5.09854 2.6467559999999994 22.811686574250544 0 0 0
105 3 7.653527999999996 2.6590969999999996 22.825699210522384 0 0 0
106 3 3.84445 4.864958 22.81705770727342 0 0 0
107 3 6.3927879999999995 4.857293 22.826021785071276 0 0 0
9 3 8.930777 5.160857 0.14003967969280115 0 0 1
96 3 7.68672 4.112843 20.76407242263264 0 0 0
108 3 8.948872999999999 4.86803 22.822468294500183 0 0 0

Velocities

1 0 0 0
4 0 0 0
11 0 0 0
25 0 0 0
2 0 0 0
3 0 0 0
8 0 0 0
10 0 0 0
12 0 0 0
14 0 0 0
15 0 0 0
17 0 0 0
18 0 0 0
20 0 0 0
21 0 0 0
24 0 0 0
6 0 0 0
13 0 0 0
16 0 0 0
28 0 0 0
29 0 0 0
31 0 0 0
34 0 0 0
41 0 0 0
19 0 0 0
23 0 0 0
26 0 0 0
30 0 0 0
32 0 0 0
35 0 0 0
44 0 0 0
22 0 0 0
27 0 0 0
33 0 0 0
36 0 0 0
40 0 0 0
38 0 0 0
55 0 0 0
39 0 0 0
42 0 0 0
46 0 0 0
47 0 0 0
48 0 0 0
50 0 0 0
51 0 0 0
53 0 0 0
54 0 0 0
56 0 0 0
58 0 0 0
61 0 0 0
37 0 0 0
43 0 0 0
45 0 0 0
49 0 0 0
52 0 0 0
63 0 0 0
64 0 0 0
67 0 0 0
70 0 0 0
73 0 0 0
76 0 0 0
59 0 0 0
62 0 0 0
65 0 0 0
66 0 0 0
68 0 0 0
71 0 0 0
75 0 0 0
77 0 0 0
78 0 0 0
57 0 0 0
60 0 0 0
69 0 0 0
72 0 0 0
74 0 0 0
82 0 0 0
85 0 0 0
94 0 0 0
97 0 0 0
79 0 0 0
80 0 0 0
83 0 0 0
84 0 0 0
86 0 0 0
88 0 0 0
89 0 0 0
95 0 0 0
81 0 0 0
87 0 0 0
90 0 0 0
99 0 0 0
7 0 0 0
91 0 0 0
92 0 0 0
100 0 0 0
101 0 0 0
103 0 0 0
5 0 0 0
93 0 0 0
98 0 0 0
102 0 0 0
104 0 0 0
105 0 0 0
106 0 0 0
107 0 0 0
9 0 0 0
96 0 0 0
108 0 0 0
