108
Lattice="10.6982062280004 0.0 0.0 0.0 10.6982062280004 0.0 0.0 0.0 10.6982062280004" Properties=species:S:1:pos:R:3:forces:R:3 virial="70.3322555398526 1.6250921683177082e-14 1.855851584098015e-14 1.6250921683177082e-14 70.3322555398529 -5.041755324191118e-14 1.855851584098015e-14 -5.041755324191118e-14 70.33225553985282" label=1 energy=-400.668936400614 stress="-0.05744095462285964 -1.3272266726240373e-17 -1.5156898610841806e-17 -1.3272266726240373e-17 -0.05744095462285989 4.117644693370088e-17 -1.5156898610841806e-17 4.117644693370088e-17 -0.05744095462285983" free_energy=-400.668936400614 pbc="T T T"
Cu   0.00937693   0.00937693   0.00937693  -0.00000000  -0.00000000  -0.00000000
Cu   0.00937693   0.00937693   3.57545000  -0.00000000  -0.00000000  -0.00000000
Cu   0.00937693   3.57545000   0.00937693  -0.00000000  -0.00000000  -0.00000000
Cu   0.00937693   3.57545000   3.57545000  -0.00000000  -0.00000000  -0.00000000
Cu   3.57545000   0.00937693   0.00937693  -0.00000000  -0.00000000  -0.00000000
Cu   3.57545000   0.00937693   3.57545000  -0.00000000  -0.00000000  -0.00000000
Cu   3.57545000   3.57545000   0.00937693  -0.00000000  -0.00000000  -0.00000000
Cu   3.57545000   3.57545000   3.57545000  -0.00000000  -0.00000000  -0.00000000
Cu   0.00937693   1.79241000   1.79241000  -0.00000000  -0.00000000  -0.00000000
Cu   3.57545000   1.79241000   1.79241000  -0.00000000  -0.00000000  -0.00000000
Cu   1.79241000   0.00937693   1.79241000  -0.00000000  -0.00000000  -0.00000000
Cu   1.79241000   3.57545000   1.79241000  -0.00000000  -0.00000000  -0.00000000
Cu   1.79241000   1.79241000   0.00937693  -0.00000000  -0.00000000  -0.00000000
Cu   1.79241000   1.79241000   3.57545000  -0.00000000  -0.00000000  -0.00000000
Cu   7.14151000   0.00937693   0.00937693   0.00000000  -0.00000000  -0.00000000
Cu   7.14151000   0.00937693   3.57545000   0.00000000  -0.00000000  -0.00000000
Cu   7.14151000   3.57545000   0.00937693   0.00000000  -0.00000000  -0.00000000
Cu   7.14151000   3.57545000   3.57545000   0.00000000  -0.00000000  -0.00000000
Cu   7.14151000   1.79241000   1.79241000   0.00000000  -0.00000000  -0.00000000
Cu   5.35848000   0.00937693   1.79241000   0.00000000  -0.00000000  -0.00000000
Cu   5.35848000   3.57545000   1.79241000   0.00000000  -0.00000000  -0.00000000
Cu   8.92455000   0.00937693   1.79241000   0.00000000  -0.00000000  -0.00000000
Cu   8.92455000   3.57545000   1.79241000   0.00000000  -0.00000000  -0.00000000
Cu   5.35848000   1.79241000   0.00937693   0.00000000  -0.00000000  -0.00000000
Cu   5.35848000   1.79241000   3.57545000   0.00000000  -0.00000000  -0.00000000
Cu   8.92455000   1.79241000   0.00937693   0.00000000  -0.00000000  -0.00000000
Cu   8.92455000   1.79241000   3.57545000   0.00000000  -0.00000000  -0.00000000
Cu   0.00937693   7.14151000   0.00937693  -0.00000000   0.00000000  -0.00000000
Cu   0.00937693   7.14151000   3.57545000  -0.00000000   0.00000000  -0.00000000
Cu   3.57545000   7.14151000   0.00937693  -0.00000000   0.00000000  -0.00000000
Cu   3.57545000   7.14151000   3.57545000  -0.00000000   0.00000000  -0.00000000
Cu   0.00937693   5.35848000   1.79241000  -0.00000000   0.00000000  -0.00000000
Cu   0.00937693   8.92455000   1.79241000  -0.00000000   0.00000000  -0.00000000
Cu   3.57545000   5.35848000   1.79241000  -0.00000000   0.00000000  -0.00000000
Cu   3.57545000   8.92455000   1.79241000  -0.00000000   0.00000000  -0.00000000
Cu   1.79241000   7.14151000   1.79241000  -0.00000000   0.00000000  -0.00000000
Cu   1.79241000   5.35848000   0.00937693  -0.00000000   0.00000000  -0.00000000
Cu   1.79241000   5.35848000   3.57545000  -0.00000000   0.00000000  -0.00000000
Cu   1.79241000   8.92455000   0.00937693  -0.00000000   0.00000000  -0.00000000
Cu   1.79241000   8.92455000   3.57545000  -0.00000000   0.00000000  -0.00000000
Cu   7.14151000   7.14151000   0.00937693   0.00000000   0.00000000  -0.00000000
Cu   7.14151000   7.14151000   3.57545000   0.00000000   0.00000000  -0.00000000
Cu   7.14151000   5.35848000   1.79241000   0.00000000   0.00000000  -0.00000000
Cu   7.14151000   8.92455000   1.79241000   0.00000000   0.00000000  -0.00000000
Cu   5.35848000   7.14151000   1.79241000   0.00000000   0.00000000  -0.00000000
Cu   8.92455000   7.14151000   1.79241000   0.00000000   0.00000000  -0.00000000
Cu   5.35848000   5.35848000   0.00937693   0.00000000   0.00000000  -0.00000000
Cu   5.35848000   5.35848000   3.57545000   0.00000000   0.00000000  -0.00000000
Cu   5.35848000   8.92455000   0.00937693   0.00000000   0.00000000  -0.00000000
Cu   5.35848000   8.92455000   3.57545000   0.00000000   0.00000000  -0.00000000
Cu   8.92455000   5.35848000   0.00937693   0.00000000   0.00000000  -0.00000000
Cu   8.92455000   5.35848000   3.57545000   0.00000000   0.00000000  -0.00000000
Cu   8.92455000   8.92455000   0.00937693   0.00000000   0.00000000  -0.00000000
Cu   8.92455000   8.92455000   3.57545000   0.00000000   0.00000000  -0.00000000
Cu   0.00937693   0.00937693   7.14151000  -0.00000000  -0.00000000   0.00000000
Cu   0.00937693   3.57545000   7.14151000  -0.00000000  -0.00000000   0.00000000
Cu   3.57545000   0.00937693   7.14151000  -0.00000000  -0.00000000   0.00000000
Cu   3.57545000   3.57545000   7.14151000  -0.00000000  -0.00000000   0.00000000
Cu   0.00937693   1.79241000   5.35848000  -0.00000000  -0.00000000   0.00000000
Cu   0.00937693   1.79241000   8.92455000  -0.00000000  -0.00000000   0.00000000
Cu   3.57545000   1.79241000   5.35848000  -0.00000000  -0.00000000   0.00000000
Cu   3.57545000   1.79241000   8.92455000  -0.00000000  -0.00000000   0.00000000
Cu   1.79241000   0.00937693   5.35848000  -0.00000000  -0.00000000   0.00000000
Cu   1.79241000   0.00937693   8.92455000  -0.00000000  -0.00000000   0.00000000
Cu   1.79241000   3.57545000   5.35848000  -0.00000000  -0.00000000   0.00000000
Cu   1.79241000   3.57545000   8.92455000  -0.00000000  -0.00000000   0.00000000
Cu   1.79241000   1.79241000   7.14151000  -0.00000000  -0.00000000   0.00000000
Cu   7.14151000   0.00937693   7.14151000   0.00000000  -0.00000000   0.00000000
Cu   7.14151000   3.57545000   7.14151000   0.00000000  -0.00000000   0.00000000
Cu   7.14151000   1.79241000   5.35848000   0.00000000  -0.00000000   0.00000000
Cu   7.14151000   1.79241000   8.92455000   0.00000000  -0.00000000   0.00000000
Cu   5.35848000   0.00937693   5.35848000   0.00000000  -0.00000000   0.00000000
Cu   5.35848000   0.00937693   8.92455000   0.00000000  -0.00000000   0.00000000
Cu   5.35848000   3.57545000   5.35848000   0.00000000  -0.00000000   0.00000000
Cu   5.35848000   3.57545000   8.92455000   0.00000000  -0.00000000   0.00000000
Cu   8.92455000   0.00937693   5.35848000   0.00000000  -0.00000000   0.00000000
Cu   8.92455000   0.00937693   8.92455000   0.00000000  -0.00000000   0.00000000
Cu   8.92455000   3.57545000   5.35848000   0.00000000  -0.00000000   0.00000000
Cu   8.92455000   3.57545000   8.92455000   0.00000000  -0.00000000   0.00000000
Cu   5.35848000   1.79241000   7.14151000   0.00000000  -0.00000000   0.00000000
Cu   8.92455000   1.79241000   7.14151000   0.00000000  -0.00000000   0.00000000
Cu   0.00937693   7.14151000   7.14151000  -0.00000000   0.00000000   0.00000000
Cu   3.57545000   7.14151000   7.14151000  -0.00000000   0.00000000   0.00000000
Cu   0.00937693   5.35848000   5.35848000  -0.00000000   0.00000000   0.00000000
Cu   0.00937693   5.35848000   8.92455000  -0.00000000   0.00000000   0.00000000
Cu   0.00937693   8.92455000   5.35848000  -0.00000000   0.00000000   0.00000000
Cu   0.00937693   8.92455000   8.92455000  -0.00000000   0.00000000   0.00000000
Cu   3.57545000   5.35848000   5.35848000  -0.00000000   0.00000000   0.00000000
Cu   3.57545000   5.35848000   8.92455000  -0.00000000   0.00000000   0.00000000
Cu   3.57545000   8.92455000   5.35848000  -0.00000000   0.00000000   0.00000000
Cu   3.57545000   8.92455000   8.92455000  -0.00000000   0.00000000   0.00000000
Cu   1.79241000   7.14151000   5.35848000  -0.00000000   0.00000000   0.00000000
Cu   1.79241000   7.14151000   8.92455000  -0.00000000   0.00000000   0.00000000
Cu   1.79241000   5.35848000   7.14151000  -0.00000000   0.00000000   0.00000000
Cu   1.79241000   8.92455000   7.14151000  -0.00000000   0.00000000   0.00000000
Cu   7.14151000   7.14151000   7.14151000   0.00000000   0.00000000   0.00000000
Cu   7.14151000   5.35848000   5.35848000   0.00000000   0.00000000   0.00000000
Cu   7.14151000   5.35848000   8.92455000   0.00000000   0.00000000   0.00000000
Cu   7.14151000   8.92455000   5.35848000   0.00000000   0.00000000   0.00000000
Cu   7.14151000   8.92455000   8.92455000   0.00000000   0.00000000   0.00000000
Cu   5.35848000   7.14151000   5.35848000   0.00000000   0.00000000   0.00000000
Cu   5.35848000   7.14151000   8.92455000   0.00000000   0.00000000   0.00000000
Cu   8.92455000   7.14151000   5.35848000   0.00000000   0.00000000   0.00000000
Cu   8.92455000   7.14151000   8.92455000   0.00000000   0.00000000   0.00000000
Cu   5.35848000   5.35848000   7.14151000   0.00000000   0.00000000   0.00000000
Cu   5.35848000   8.92455000   7.14151000   0.00000000   0.00000000   0.00000000
Cu   8.92455000   5.35848000   7.14151000   0.00000000   0.00000000   0.00000000
Cu   8.92455000   8.92455000   7.14151000   0.00000000   0.00000000   0.00000000
