108
Lattice="10.7719892921663 0.0 0.0 0.0 10.7719892921663 0.0 0.0 0.0 10.7719892921663" Properties=species:S:1:pos:R:3:forces:R:3 virial="43.4485263097509 -6.049352518721307e-15 -2.7673310411765022e-14 -6.049352518721307e-15 43.448526309750825 -1.0142196429779678e-14 -2.7673310411765022e-14 -1.0142196429779678e-14 43.448526309750825" label=1 energy=-401.839282774315 stress="-0.03476060378931347 4.8397302266605325e-18 2.2139783796215068e-17 4.8397302266605325e-18 -0.03476060378931341 8.114173289459544e-18 2.2139783796215068e-17 8.114173289459544e-18 -0.03476060378931341" free_energy=-401.839282774315 pbc="T T T"
Cu   0.00944160   0.00944160   0.00944160  -0.00000000  -0.00000000  -0.00000000
Cu   0.00944160   0.00944160   3.60010000  -0.00000000  -0.00000000  -0.00000000
Cu   0.00944160   3.60010000   0.00944160  -0.00000000  -0.00000000  -0.00000000
Cu   0.00944160   3.60010000   3.60010000  -0.00000000  -0.00000000  -0.00000000
Cu   3.60010000   0.00944160   0.00944160  -0.00000000  -0.00000000  -0.00000000
Cu   3.60010000   0.00944160   3.60010000  -0.00000000  -0.00000000  -0.00000000
Cu   3.60010000   3.60010000   0.00944160  -0.00000000  -0.00000000  -0.00000000
Cu   3.60010000   3.60010000   3.60010000  -0.00000000  -0.00000000  -0.00000000
Cu   0.00944160   1.80477000   1.80477000  -0.00000000  -0.00000000  -0.00000000
Cu   3.60010000   1.80477000   1.80477000  -0.00000000  -0.00000000  -0.00000000
Cu   1.80477000   0.00944160   1.80477000  -0.00000000  -0.00000000  -0.00000000
Cu   1.80477000   3.60010000   1.80477000  -0.00000000  -0.00000000  -0.00000000
Cu   1.80477000   1.80477000   0.00944160  -0.00000000  -0.00000000  -0.00000000
Cu   1.80477000   1.80477000   3.60010000  -0.00000000  -0.00000000  -0.00000000
Cu   7.19077000   0.00944160   0.00944160   0.00000000  -0.00000000  -0.00000000
Cu   7.19077000   0.00944160   3.60010000   0.00000000  -0.00000000  -0.00000000
Cu   7.19077000   3.60010000   0.00944160   0.00000000  -0.00000000  -0.00000000
Cu   7.19077000   3.60010000   3.60010000   0.00000000  -0.00000000  -0.00000000
Cu   7.19077000   1.80477000   1.80477000   0.00000000  -0.00000000  -0.00000000
Cu   5.39544000   0.00944160   1.80477000   0.00000000  -0.00000000  -0.00000000
Cu   5.39544000   3.60010000   1.80477000   0.00000000  -0.00000000  -0.00000000
Cu   8.98610000   0.00944160   1.80477000   0.00000000  -0.00000000  -0.00000000
Cu   8.98610000   3.60010000   1.80477000   0.00000000  -0.00000000  -0.00000000
Cu   5.39544000   1.80477000   0.00944160   0.00000000  -0.00000000  -0.00000000
Cu   5.39544000   1.80477000   3.60010000   0.00000000  -0.00000000  -0.00000000
Cu   8.98610000   1.80477000   0.00944160   0.00000000  -0.00000000  -0.00000000
Cu   8.98610000   1.80477000   3.60010000   0.00000000  -0.00000000  -0.00000000
Cu   0.00944160   7.19077000   0.00944160  -0.00000000   0.00000000  -0.00000000
Cu   0.00944160   7.19077000   3.60010000  -0.00000000   0.00000000  -0.00000000
Cu   3.60010000   7.19077000   0.00944160  -0.00000000   0.00000000  -0.00000000
Cu   3.60010000   7.19077000   3.60010000  -0.00000000   0.00000000  -0.00000000
Cu   0.00944160   5.39544000   1.80477000  -0.00000000   0.00000000  -0.00000000
Cu   0.00944160   8.98610000   1.80477000  -0.00000000   0.00000000  -0.00000000
Cu   3.60010000   5.39544000   1.80477000  -0.00000000   0.00000000  -0.00000000
Cu   3.60010000   8.98610000   1.80477000  -0.00000000   0.00000000  -0.00000000
Cu   1.80477000   7.19077000   1.80477000  -0.00000000   0.00000000  -0.00000000
Cu   1.80477000   5.39544000   0.00944160  -0.00000000   0.00000000  -0.00000000
Cu   1.80477000   5.39544000   3.60010000  -0.00000000   0.00000000  -0.00000000
Cu   1.80477000   8.98610000   0.00944160  -0.00000000   0.00000000  -0.00000000
Cu   1.80477000   8.98610000   3.60010000  -0.00000000   0.00000000  -0.00000000
Cu   7.19077000   7.19077000   0.00944160   0.00000000   0.00000000  -0.00000000
Cu   7.19077000   7.19077000   3.60010000   0.00000000   0.00000000  -0.00000000
Cu   7.19077000   5.39544000   1.80477000   0.00000000   0.00000000  -0.00000000
Cu   7.19077000   8.98610000   1.80477000   0.00000000   0.00000000  -0.00000000
Cu   5.39544000   7.19077000   1.80477000   0.00000000   0.00000000  -0.00000000
Cu   8.98610000   7.19077000   1.80477000   0.00000000   0.00000000  -0.00000000
Cu   5.39544000   5.39544000   0.00944160   0.00000000   0.00000000  -0.00000000
Cu   5.39544000   5.39544000   3.60010000   0.00000000   0.00000000  -0.00000000
Cu   5.39544000   8.98610000   0.00944160   0.00000000   0.00000000  -0.00000000
Cu   5.39544000   8.98610000   3.60010000   0.00000000   0.00000000  -0.00000000
Cu   8.98610000   5.39544000   0.00944160   0.00000000   0.00000000  -0.00000000
Cu   8.98610000   5.39544000   3.60010000   0.00000000   0.00000000  -0.00000000
Cu   8.98610000   8.98610000   0.00944160   0.00000000   0.00000000  -0.00000000
Cu   8.98610000   8.98610000   3.60010000   0.00000000   0.00000000  -0.00000000
Cu   0.00944160   0.00944160   7.19077000  -0.00000000  -0.00000000   0.00000000
Cu   0.00944160   3.60010000   7.19077000  -0.00000000  -0.00000000   0.00000000
Cu   3.60010000   0.00944160   7.19077000  -0.00000000  -0.00000000   0.00000000
Cu   3.60010000   3.60010000   7.19077000  -0.00000000  -0.00000000   0.00000000
Cu   0.00944160   1.80477000   5.39544000  -0.00000000  -0.00000000   0.00000000
Cu   0.00944160   1.80477000   8.98610000  -0.00000000  -0.00000000   0.00000000
Cu   3.60010000   1.80477000   5.39544000  -0.00000000  -0.00000000   0.00000000
Cu   3.60010000   1.80477000   8.98610000  -0.00000000  -0.00000000   0.00000000
Cu   1.80477000   0.00944160   5.39544000  -0.00000000  -0.00000000   0.00000000
Cu   1.80477000   0.00944160   8.98610000  -0.00000000  -0.00000000   0.00000000
Cu   1.80477000   3.60010000   5.39544000  -0.00000000  -0.00000000   0.00000000
Cu   1.80477000   3.60010000   8.98610000  -0.00000000  -0.00000000   0.00000000
Cu   1.80477000   1.80477000   7.19077000  -0.00000000  -0.00000000   0.00000000
Cu   7.19077000   0.00944160   7.19077000   0.00000000  -0.00000000   0.00000000
Cu   7.19077000   3.60010000   7.19077000   0.00000000  -0.00000000   0.00000000
Cu   7.19077000   1.80477000   5.39544000   0.00000000  -0.00000000   0.00000000
Cu   7.19077000   1.80477000   8.98610000   0.00000000  -0.00000000   0.00000000
Cu   5.39544000   0.00944160   5.39544000   0.00000000  -0.00000000   0.00000000
Cu   5.39544000   0.00944160   8.98610000   0.00000000  -0.00000000   0.00000000
Cu   5.39544000   3.60010000   5.39544000   0.00000000  -0.00000000   0.00000000
Cu   5.39544000   3.60010000   8.98610000   0.00000000  -0.00000000   0.00000000
Cu   8.98610000   0.00944160   5.39544000   0.00000000  -0.00000000   0.00000000
Cu   8.98610000   0.00944160   8.98610000   0.00000000  -0.00000000   0.00000000
Cu   8.98610000   3.60010000   5.39544000   0.00000000  -0.00000000   0.00000000
Cu   8.98610000   3.60010000   8.98610000   0.00000000  -0.00000000   0.00000000
Cu   5.39544000   1.80477000   7.19077000   0.00000000  -0.00000000   0.00000000
Cu   8.98610000   1.80477000   7.19077000   0.00000000  -0.00000000   0.00000000
Cu   0.00944160   7.19077000   7.19077000  -0.00000000   0.00000000   0.00000000
Cu   3.60010000   7.19077000   7.19077000  -0.00000000   0.00000000   0.00000000
Cu   0.00944160   5.39544000   5.39544000  -0.00000000   0.00000000   0.00000000
Cu   0.00944160   5.39544000   8.98610000  -0.00000000   0.00000000   0.00000000
Cu   0.00944160   8.98610000   5.39544000  -0.00000000   0.00000000   0.00000000
Cu   0.00944160   8.98610000   8.98610000  -0.00000000   0.00000000   0.00000000
Cu   3.60010000   5.39544000   5.39544000  -0.00000000   0.00000000   0.00000000
Cu   3.60010000   5.39544000   8.98610000  -0.00000000   0.00000000   0.00000000
Cu   3.60010000   8.98610000   5.39544000  -0.00000000   0.00000000   0.00000000
Cu   3.60010000   8.98610000   8.98610000  -0.00000000   0.00000000   0.00000000
Cu   1.80477000   7.19077000   5.39544000  -0.00000000   0.00000000   0.00000000
Cu   1.80477000   7.19077000   8.98610000  -0.00000000   0.00000000   0.00000000
Cu   1.80477000   5.39544000   7.19077000  -0.00000000   0.00000000   0.00000000
Cu   1.80477000   8.98610000   7.19077000  -0.00000000   0.00000000   0.00000000
Cu   7.19077000   7.19077000   7.19077000   0.00000000   0.00000000   0.00000000
Cu   7.19077000   5.39544000   5.39544000   0.00000000   0.00000000   0.00000000
Cu   7.19077000   5.39544000   8.98610000   0.00000000   0.00000000   0.00000000
Cu   7.19077000   8.98610000   5.39544000   0.00000000   0.00000000   0.00000000
Cu   7.19077000   8.98610000   8.98610000   0.00000000   0.00000000   0.00000000
Cu   5.39544000   7.19077000   5.39544000   0.00000000   0.00000000   0.00000000
Cu   5.39544000   7.19077000   8.98610000   0.00000000   0.00000000   0.00000000
Cu   8.98610000   7.19077000   5.39544000   0.00000000   0.00000000   0.00000000
Cu   8.98610000   7.19077000   8.98610000   0.00000000   0.00000000   0.00000000
Cu   5.39544000   5.39544000   7.19077000   0.00000000   0.00000000   0.00000000
Cu   5.39544000   8.98610000   7.19077000   0.00000000   0.00000000   0.00000000
Cu   8.98610000   5.39544000   7.19077000   0.00000000   0.00000000   0.00000000
Cu   8.98610000   8.98610000   7.19077000   0.00000000   0.00000000   0.00000000
