108
Lattice="10.9165970079705 0.0 0.0 0.0 10.9165970079705 0.0 0.0 0.0 10.9165970079705" Properties=species:S:1:pos:R:3:forces:R:3 virial="-4.286121462592852 -2.0737903409550998e-14 -4.506861855506431e-14 -2.0737903409550998e-14 -4.2861214625929005 4.359215181614776e-14 -4.506861855506431e-14 4.359215181614776e-14 -4.2861214625928845" label=1 energy=-402.603376890476 stress="0.003294599582089979 1.5940539367075616e-17 3.46427540966289e-17 1.5940539367075616e-17 0.003294599582090017 -3.3507843025288994e-17 3.46427540966289e-17 -3.3507843025288994e-17 0.0032945995820900043" free_energy=-402.603376890476 pbc="T T T"
Cu   0.00956835   0.00956835   0.00956835  -0.00000000  -0.00000000  -0.00000000
Cu   0.00956835   0.00956835   3.64843000  -0.00000000  -0.00000000  -0.00000000
Cu   0.00956835   3.64843000   0.00956835  -0.00000000  -0.00000000  -0.00000000
Cu   0.00956835   3.64843000   3.64843000  -0.00000000  -0.00000000  -0.00000000
Cu   3.64843000   0.00956835   0.00956835  -0.00000000  -0.00000000  -0.00000000
Cu   3.64843000   0.00956835   3.64843000  -0.00000000  -0.00000000  -0.00000000
Cu   3.64843000   3.64843000   0.00956835  -0.00000000  -0.00000000  -0.00000000
Cu   3.64843000   3.64843000   3.64843000  -0.00000000  -0.00000000  -0.00000000
Cu   0.00956835   1.82900000   1.82900000  -0.00000000  -0.00000000  -0.00000000
Cu   3.64843000   1.82900000   1.82900000  -0.00000000  -0.00000000  -0.00000000
Cu   1.82900000   0.00956835   1.82900000  -0.00000000  -0.00000000  -0.00000000
Cu   1.82900000   3.64843000   1.82900000  -0.00000000  -0.00000000  -0.00000000
Cu   1.82900000   1.82900000   0.00956835  -0.00000000  -0.00000000  -0.00000000
Cu   1.82900000   1.82900000   3.64843000  -0.00000000  -0.00000000  -0.00000000
Cu   7.28730000   0.00956835   0.00956835   0.00000000  -0.00000000  -0.00000000
Cu   7.28730000   0.00956835   3.64843000   0.00000000  -0.00000000  -0.00000000
Cu   7.28730000   3.64843000   0.00956835   0.00000000  -0.00000000  -0.00000000
Cu   7.28730000   3.64843000   3.64843000   0.00000000  -0.00000000  -0.00000000
Cu   7.28730000   1.82900000   1.82900000   0.00000000  -0.00000000  -0.00000000
Cu   5.46787000   0.00956835   1.82900000   0.00000000  -0.00000000  -0.00000000
Cu   5.46787000   3.64843000   1.82900000   0.00000000  -0.00000000  -0.00000000
Cu   9.10673000   0.00956835   1.82900000   0.00000000  -0.00000000  -0.00000000
Cu   9.10673000   3.64843000   1.82900000   0.00000000  -0.00000000  -0.00000000
Cu   5.46787000   1.82900000   0.00956835   0.00000000  -0.00000000  -0.00000000
Cu   5.46787000   1.82900000   3.64843000   0.00000000  -0.00000000  -0.00000000
Cu   9.10673000   1.82900000   0.00956835   0.00000000  -0.00000000  -0.00000000
Cu   9.10673000   1.82900000   3.64843000   0.00000000  -0.00000000  -0.00000000
Cu   0.00956835   7.28730000   0.00956835  -0.00000000   0.00000000  -0.00000000
Cu   0.00956835   7.28730000   3.64843000  -0.00000000   0.00000000  -0.00000000
Cu   3.64843000   7.28730000   0.00956835  -0.00000000   0.00000000  -0.00000000
Cu   3.64843000   7.28730000   3.64843000  -0.00000000   0.00000000  -0.00000000
Cu   0.00956835   5.46787000   1.82900000  -0.00000000   0.00000000  -0.00000000
Cu   0.00956835   9.10673000   1.82900000  -0.00000000   0.00000000  -0.00000000
Cu   3.64843000   5.46787000   1.82900000  -0.00000000   0.00000000  -0.00000000
Cu   3.64843000   9.10673000   1.82900000  -0.00000000   0.00000000  -0.00000000
Cu   1.82900000   7.28730000   1.82900000  -0.00000000   0.00000000  -0.00000000
Cu   1.82900000   5.46787000   0.00956835  -0.00000000   0.00000000  -0.00000000
Cu   1.82900000   5.46787000   3.64843000  -0.00000000   0.00000000  -0.00000000
Cu   1.82900000   9.10673000   0.00956835  -0.00000000   0.00000000  -0.00000000
Cu   1.82900000   9.10673000   3.64843000  -0.00000000   0.00000000  -0.00000000
Cu   7.28730000   7.28730000   0.00956835   0.00000000   0.00000000  -0.00000000
Cu   7.28730000   7.28730000   3.64843000   0.00000000   0.00000000  -0.00000000
Cu   7.28730000   5.46787000   1.82900000   0.00000000   0.00000000  -0.00000000
Cu   7.28730000   9.10673000   1.82900000   0.00000000   0.00000000  -0.00000000
Cu   5.46787000   7.28730000   1.82900000   0.00000000   0.00000000  -0.00000000
Cu   9.10673000   7.28730000   1.82900000   0.00000000   0.00000000  -0.00000000
Cu   5.46787000   5.46787000   0.00956835   0.00000000   0.00000000  -0.00000000
Cu   5.46787000   5.46787000   3.64843000   0.00000000   0.00000000  -0.00000000
Cu   5.46787000   9.10673000   0.00956835   0.00000000   0.00000000  -0.00000000
Cu   5.46787000   9.10673000   3.64843000   0.00000000   0.00000000  -0.00000000
Cu   9.10673000   5.46787000   0.00956835   0.00000000   0.00000000  -0.00000000
Cu   9.10673000   5.46787000   3.64843000   0.00000000   0.00000000  -0.00000000
Cu   9.10673000   9.10673000   0.00956835   0.00000000   0.00000000  -0.00000000
Cu   9.10673000   9.10673000   3.64843000   0.00000000   0.00000000  -0.00000000
Cu   0.00956835   0.00956835   7.28730000  -0.00000000  -0.00000000   0.00000000
Cu   0.00956835   3.64843000   7.28730000  -0.00000000  -0.00000000   0.00000000
Cu   3.64843000   0.00956835   7.28730000  -0.00000000  -0.00000000   0.00000000
Cu   3.64843000   3.64843000   7.28730000  -0.00000000  -0.00000000   0.00000000
Cu   0.00956835   1.82900000   5.46787000  -0.00000000  -0.00000000   0.00000000
Cu   0.00956835   1.82900000   9.10673000  -0.00000000  -0.00000000   0.00000000
Cu   3.64843000   1.82900000   5.46787000  -0.00000000  -0.00000000   0.00000000
Cu   3.64843000   1.82900000   9.10673000  -0.00000000  -0.00000000   0.00000000
Cu   1.82900000   0.00956835   5.46787000  -0.00000000  -0.00000000   0.00000000
Cu   1.82900000   0.00956835   9.10673000  -0.00000000  -0.00000000   0.00000000
Cu   1.82900000   3.64843000   5.46787000  -0.00000000  -0.00000000   0.00000000
Cu   1.82900000   3.64843000   9.10673000  -0.00000000  -0.00000000   0.00000000
Cu   1.82900000   1.82900000   7.28730000  -0.00000000  -0.00000000   0.00000000
Cu   7.28730000   0.00956835   7.28730000   0.00000000  -0.00000000   0.00000000
Cu   7.28730000   3.64843000   7.28730000   0.00000000  -0.00000000   0.00000000
Cu   7.28730000   1.82900000   5.46787000   0.00000000  -0.00000000   0.00000000
Cu   7.28730000   1.82900000   9.10673000   0.00000000  -0.00000000   0.00000000
Cu   5.46787000   0.00956835   5.46787000   0.00000000  -0.00000000   0.00000000
Cu   5.46787000   0.00956835   9.10673000   0.00000000  -0.00000000   0.00000000
Cu   5.46787000   3.64843000   5.46787000   0.00000000  -0.00000000   0.00000000
Cu   5.46787000   3.64843000   9.10673000   0.00000000  -0.00000000   0.00000000
Cu   9.10673000   0.00956835   5.46787000   0.00000000  -0.00000000   0.00000000
Cu   9.10673000   0.00956835   9.10673000   0.00000000  -0.00000000   0.00000000
Cu   9.10673000   3.64843000   5.46787000   0.00000000  -0.00000000   0.00000000
Cu   9.10673000   3.64843000   9.10673000   0.00000000  -0.00000000   0.00000000
Cu   5.46787000   1.82900000   7.28730000   0.00000000  -0.00000000   0.00000000
Cu   9.10673000   1.82900000   7.28730000   0.00000000  -0.00000000   0.00000000
Cu   0.00956835   7.28730000   7.28730000  -0.00000000   0.00000000   0.00000000
Cu   3.64843000   7.28730000   7.28730000  -0.00000000   0.00000000   0.00000000
Cu   0.00956835   5.46787000   5.46787000  -0.00000000   0.00000000   0.00000000
Cu   0.00956835   5.46787000   9.10673000  -0.00000000   0.00000000   0.00000000
Cu   0.00956835   9.10673000   5.46787000  -0.00000000   0.00000000   0.00000000
Cu   0.00956835   9.10673000   9.10673000  -0.00000000   0.00000000   0.00000000
Cu   3.64843000   5.46787000   5.46787000  -0.00000000   0.00000000   0.00000000
Cu   3.64843000   5.46787000   9.10673000  -0.00000000   0.00000000   0.00000000
Cu   3.64843000   9.10673000   5.46787000  -0.00000000   0.00000000   0.00000000
Cu   3.64843000   9.10673000   9.10673000  -0.00000000   0.00000000   0.00000000
Cu   1.82900000   7.28730000   5.46787000  -0.00000000   0.00000000   0.00000000
Cu   1.82900000   7.28730000   9.10673000  -0.00000000   0.00000000   0.00000000
Cu   1.82900000   5.46787000   7.28730000  -0.00000000   0.00000000   0.00000000
Cu   1.82900000   9.10673000   7.28730000  -0.00000000   0.00000000   0.00000000
Cu   7.28730000   7.28730000   7.28730000   0.00000000   0.00000000   0.00000000
Cu   7.28730000   5.46787000   5.46787000   0.00000000   0.00000000   0.00000000
Cu   7.28730000   5.46787000   9.10673000   0.00000000   0.00000000   0.00000000
Cu   7.28730000   9.10673000   5.46787000   0.00000000   0.00000000   0.00000000
Cu   7.28730000   9.10673000   9.10673000   0.00000000   0.00000000   0.00000000
Cu   5.46787000   7.28730000   5.46787000   0.00000000   0.00000000   0.00000000
Cu   5.46787000   7.28730000   9.10673000   0.00000000   0.00000000   0.00000000
Cu   9.10673000   7.28730000   5.46787000   0.00000000   0.00000000   0.00000000
Cu   9.10673000   7.28730000   9.10673000   0.00000000   0.00000000   0.00000000
Cu   5.46787000   5.46787000   7.28730000   0.00000000   0.00000000   0.00000000
Cu   5.46787000   9.10673000   7.28730000   0.00000000   0.00000000   0.00000000
Cu   9.10673000   5.46787000   7.28730000   0.00000000   0.00000000   0.00000000
Cu   9.10673000   9.10673000   7.28730000   0.00000000   0.00000000   0.00000000
