128
Lattice="11.2881744771292 0.0 0.0 0.0 11.2881744771292 0.0 0.0 0.0 11.2881744771292" Properties=species:S:1:pos:R:3:forces:R:3 virial="98.05190154980988 3.0077836387621215e-14 -2.104828015208917e-14 3.0077836387621215e-14 98.05190154980988 -3.664691234346183e-14 -2.104828015208917e-14 -3.664691234346183e-14 98.05190154980988" label=1 energy=-468.953577568842 stress="-0.0681686792762027 -2.091103129691242e-17 1.463340778021058e-17 -2.091103129691242e-17 -0.0681686792762027 2.5478053709498987e-17 1.463340778021058e-17 2.5478053709498987e-17 -0.0681686792762027" free_energy=-468.953577568842 pbc="T T T"
Cu   0.00000000   0.00000000   0.00000000  -0.00000000  -0.00000000  -0.00000000
Cu   0.00000000   0.00000000   2.82204000   0.00000000   0.00000000  -0.00000000
Cu   11.28820000   0.00000000   5.64409000   0.00000000  -0.00000000  -0.00000000
Cu   0.00000000   11.28820000   8.46613000  -0.00000000   0.00000000  -0.00000000
Cu   0.00000000   2.82204000   0.00000000  -0.00000000  -0.00000000   0.00000000
Cu   0.00000000   2.82204000   2.82204000  -0.00000000   0.00000000   0.00000000
Cu   0.00000000   2.82204000   5.64409000  -0.00000000   0.00000000  -0.00000000
Cu   0.00000000   2.82204000   8.46613000  -0.00000000  -0.00000000  -0.00000000
Cu   0.00000000   5.64409000   0.00000000   0.00000000  -0.00000000  -0.00000000
Cu   0.00000000   5.64409000   2.82204000  -0.00000000  -0.00000000   0.00000000
Cu   0.00000000   5.64409000   5.64409000   0.00000000   0.00000000  -0.00000000
Cu   11.28820000   5.64409000   8.46613000   0.00000000   0.00000000   0.00000000
Cu   11.28820000   8.46613000   0.00000000   0.00000000   0.00000000  -0.00000000
Cu   0.00000000   8.46613000   2.82204000  -0.00000000  -0.00000000   0.00000000
Cu   11.28820000   8.46613000   5.64409000   0.00000000  -0.00000000  -0.00000000
Cu   11.28820000   8.46613000   8.46613000   0.00000000   0.00000000  -0.00000000
Cu   2.82204000   0.00000000   0.00000000  -0.00000000  -0.00000000   0.00000000
Cu   2.82204000   0.00000000   2.82204000  -0.00000000   0.00000000  -0.00000000
Cu   2.82204000   0.00000000   5.64409000   0.00000000  -0.00000000  -0.00000000
Cu   2.82204000   0.00000000   8.46613000  -0.00000000  -0.00000000  -0.00000000
Cu   2.82204000   2.82204000   0.00000000   0.00000000   0.00000000   0.00000000
Cu   2.82204000   2.82204000   2.82204000   0.00000000   0.00000000  -0.00000000
Cu   2.82204000   2.82204000   5.64409000   0.00000000   0.00000000  -0.00000000
Cu   2.82204000   2.82204000   8.46613000   0.00000000   0.00000000   0.00000000
Cu   2.82204000   5.64409000   0.00000000   0.00000000  -0.00000000  -0.00000000
Cu   2.82204000   5.64409000   2.82204000   0.00000000  -0.00000000   0.00000000
Cu   2.82204000   5.64409000   5.64409000   0.00000000  -0.00000000  -0.00000000
Cu   2.82204000   5.64409000   8.46613000  -0.00000000  -0.00000000   0.00000000
Cu   2.82204000   8.46613000   0.00000000  -0.00000000  -0.00000000  -0.00000000
Cu   2.82204000   8.46613000   2.82204000   0.00000000   0.00000000  -0.00000000
Cu   2.82204000   8.46613000   5.64409000   0.00000000  -0.00000000  -0.00000000
Cu   2.82204000   8.46613000   8.46613000  -0.00000000   0.00000000   0.00000000
Cu   5.64409000   0.00000000   0.00000000   0.00000000   0.00000000  -0.00000000
Cu   5.64409000   0.00000000   2.82204000  -0.00000000  -0.00000000   0.00000000
Cu   5.64409000   0.00000000   5.64409000   0.00000000  -0.00000000   0.00000000
Cu   5.64409000   0.00000000   8.46613000   0.00000000  -0.00000000  -0.00000000
Cu   5.64409000   2.82204000   0.00000000  -0.00000000   0.00000000  -0.00000000
Cu   5.64409000   2.82204000   2.82204000  -0.00000000   0.00000000   0.00000000
Cu   5.64409000   2.82204000   5.64409000  -0.00000000   0.00000000  -0.00000000
Cu   5.64409000   2.82204000   8.46613000   0.00000000   0.00000000   0.00000000
Cu   5.64409000   5.64409000   0.00000000   0.00000000   0.00000000   0.00000000
Cu   5.64409000   5.64409000   2.82204000   0.00000000  -0.00000000  -0.00000000
Cu   5.64409000   5.64409000   5.64409000  -0.00000000  -0.00000000  -0.00000000
Cu   5.64409000   5.64409000   8.46613000  -0.00000000  -0.00000000   0.00000000
Cu   5.64409000   8.46613000   0.00000000   0.00000000  -0.00000000   0.00000000
Cu   5.64409000   8.46613000   2.82204000  -0.00000000  -0.00000000   0.00000000
Cu   5.64409000   8.46613000   5.64409000   0.00000000   0.00000000   0.00000000
Cu   5.64409000   8.46613000   8.46613000   0.00000000   0.00000000  -0.00000000
Cu   8.46613000   11.28820000   0.00000000   0.00000000   0.00000000  -0.00000000
Cu   8.46613000   0.00000000   2.82204000   0.00000000   0.00000000   0.00000000
Cu   8.46613000   0.00000000   5.64409000  -0.00000000  -0.00000000  -0.00000000
Cu   8.46613000   11.28820000   8.46613000   0.00000000   0.00000000   0.00000000
Cu   8.46613000   2.82204000   0.00000000  -0.00000000  -0.00000000  -0.00000000
Cu   8.46613000   2.82204000   2.82204000   0.00000000  -0.00000000   0.00000000
Cu   8.46613000   2.82204000   5.64409000  -0.00000000  -0.00000000  -0.00000000
Cu   8.46613000   2.82204000   8.46613000   0.00000000  -0.00000000   0.00000000
Cu   8.46613000   5.64409000   0.00000000  -0.00000000   0.00000000   0.00000000
Cu   8.46613000   5.64409000   2.82204000   0.00000000  -0.00000000  -0.00000000
Cu   8.46613000   5.64409000   5.64409000   0.00000000  -0.00000000  -0.00000000
Cu   8.46613000   5.64409000   8.46613000   0.00000000   0.00000000  -0.00000000
Cu   8.46613000   8.46613000   0.00000000  -0.00000000  -0.00000000  -0.00000000
Cu   8.46613000   8.46613000   2.82204000  -0.00000000  -0.00000000   0.00000000
Cu   8.46613000   8.46613000   5.64409000  -0.00000000  -0.00000000  -0.00000000
Cu   8.46613000   8.46613000   8.46613000  -0.00000000   0.00000000   0.00000000
Cu   1.41102000   1.41102000   1.41102000   0.00000000  -0.00000000   0.00000000
Cu   1.41102000   1.41102000   4.23307000   0.00000000  -0.00000000  -0.00000000
Cu   1.41102000   1.41102000   7.05511000  -0.00000000  -0.00000000   0.00000000
Cu   1.41102000   1.41102000   9.87715000   0.00000000  -0.00000000   0.00000000
Cu   1.41102000   4.23307000   1.41102000  -0.00000000  -0.00000000   0.00000000
Cu   1.41102000   4.23307000   4.23307000  -0.00000000  -0.00000000  -0.00000000
Cu   1.41102000   4.23307000   7.05511000   0.00000000   0.00000000   0.00000000
Cu   1.41102000   4.23307000   9.87715000   0.00000000   0.00000000  -0.00000000
Cu   1.41102000   7.05511000   1.41102000  -0.00000000   0.00000000  -0.00000000
Cu   1.41102000   7.05511000   4.23307000  -0.00000000   0.00000000   0.00000000
Cu   1.41102000   7.05511000   7.05511000  -0.00000000   0.00000000   0.00000000
Cu   1.41102000   7.05511000   9.87715000   0.00000000   0.00000000  -0.00000000
Cu   1.41102000   9.87715000   1.41102000   0.00000000   0.00000000  -0.00000000
Cu   1.41102000   9.87715000   4.23307000   0.00000000   0.00000000  -0.00000000
Cu   1.41102000   9.87715000   7.05511000   0.00000000   0.00000000   0.00000000
Cu   1.41102000   9.87715000   9.87715000   0.00000000  -0.00000000   0.00000000
Cu   4.23307000   1.41102000   1.41102000  -0.00000000   0.00000000  -0.00000000
Cu   4.23307000   1.41102000   4.23307000  -0.00000000   0.00000000  -0.00000000
Cu   4.23307000   1.41102000   7.05511000   0.00000000  -0.00000000  -0.00000000
Cu   4.23307000   1.41102000   9.87715000   0.00000000   0.00000000   0.00000000
Cu   4.23307000   4.23307000   1.41102000   0.00000000  -0.00000000  -0.00000000
Cu   4.23307000   4.23307000   4.23307000   0.00000000  -0.00000000   0.00000000
Cu   4.23307000   4.23307000   7.05511000   0.00000000   0.00000000   0.00000000
Cu   4.23307000   4.23307000   9.87715000   0.00000000  -0.00000000   0.00000000
Cu   4.23307000   7.05511000   1.41102000   0.00000000   0.00000000  -0.00000000
Cu   4.23307000   7.05511000   4.23307000   0.00000000   0.00000000   0.00000000
Cu   4.23307000   7.05511000   7.05511000   0.00000000   0.00000000   0.00000000
Cu   4.23307000   7.05511000   9.87715000   0.00000000   0.00000000   0.00000000
Cu   4.23307000   9.87715000   1.41102000  -0.00000000   0.00000000   0.00000000
Cu   4.23307000   9.87715000   4.23307000  -0.00000000  -0.00000000  -0.00000000
Cu   4.23307000   9.87715000   7.05511000   0.00000000   0.00000000   0.00000000
Cu   4.23307000   9.87715000   9.87715000   0.00000000   0.00000000   0.00000000
Cu   7.05511000   1.41102000   1.41102000   0.00000000   0.00000000  -0.00000000
Cu   7.05511000   1.41102000   4.23307000   0.00000000  -0.00000000   0.00000000
Cu   7.05511000   1.41102000   7.05511000   0.00000000  -0.00000000   0.00000000
Cu   7.05511000   1.41102000   9.87715000   0.00000000  -0.00000000   0.00000000
Cu   7.05511000   4.23307000   1.41102000  -0.00000000   0.00000000   0.00000000
Cu   7.05511000   4.23307000   4.23307000  -0.00000000  -0.00000000  -0.00000000
Cu   7.05511000   4.23307000   7.05511000  -0.00000000   0.00000000  -0.00000000
Cu   7.05511000   4.23307000   9.87715000  -0.00000000  -0.00000000   0.00000000
Cu   7.05511000   7.05511000   1.41102000   0.00000000   0.00000000  -0.00000000
Cu   7.05511000   7.05511000   4.23307000   0.00000000   0.00000000  -0.00000000
Cu   7.05511000   7.05511000   7.05511000   0.00000000   0.00000000   0.00000000
Cu   7.05511000   7.05511000   9.87715000  -0.00000000   0.00000000   0.00000000
Cu   7.05511000   9.87715000   1.41102000   0.00000000  -0.00000000  -0.00000000
Cu   7.05511000   9.87715000   4.23307000   0.00000000   0.00000000   0.00000000
Cu   7.05511000   9.87715000   7.05511000  -0.00000000  -0.00000000  -0.00000000
Cu   7.05511000   9.87715000   9.87715000   0.00000000  -0.00000000   0.00000000
Cu   9.87715000   1.41102000   1.41102000  -0.00000000  -0.00000000   0.00000000
Cu   9.87715000   1.41102000   4.23307000  -0.00000000   0.00000000  -0.00000000
Cu   9.87715000   1.41102000   7.05511000  -0.00000000  -0.00000000   0.00000000
Cu   9.87715000   1.41102000   9.87715000  -0.00000000  -0.00000000  -0.00000000
Cu   9.87715000   4.23307000   1.41102000   0.00000000   0.00000000   0.00000000
Cu   9.87715000   4.23307000   4.23307000   0.00000000  -0.00000000  -0.00000000
Cu   9.87715000   4.23307000   7.05511000  -0.00000000  -0.00000000   0.00000000
Cu   9.87715000   4.23307000   9.87715000  -0.00000000   0.00000000   0.00000000
Cu   9.87715000   7.05511000   1.41102000  -0.00000000   0.00000000   0.00000000
Cu   9.87715000   7.05511000   4.23307000   0.00000000   0.00000000  -0.00000000
Cu   9.87715000   7.05511000   7.05511000   0.00000000   0.00000000  -0.00000000
Cu   9.87715000   7.05511000   9.87715000   0.00000000  -0.00000000   0.00000000
Cu   9.87715000   9.87715000   1.41102000  -0.00000000   0.00000000   0.00000000
Cu   9.87715000   9.87715000   4.23307000  -0.00000000   0.00000000  -0.00000000
Cu   9.87715000   9.87715000   7.05511000   0.00000000  -0.00000000   0.00000000
Cu   9.87715000   9.87715000   9.87715000  -0.00000000   0.00000000   0.00000000
128
Lattice="11.36444824 0.0 0.0 0.0 11.36444824 0.0 0.0 0.0 11.36444824" Properties=species:S:1:pos:R:3:forces:R:3 virial="68.76874572272264 -6.460799490637593e-14 -5.414725838219636e-14 -6.460799490637593e-14 68.76874572272274 -4.2656451038373873e-14 -5.414725838219636e-14 -4.2656451038373873e-14 68.76874572272274" label=1 energy=-470.636696564331 stress="-0.046853931513375635 4.4019103980249405e-17 3.6891932653618265e-17 4.4019103980249405e-17 -0.0468539315133757 2.906294733968433e-17 3.6891932653618265e-17 2.906294733968433e-17 -0.0468539315133757" free_energy=-470.636696564331 pbc="T T T"
Cu   0.00000000   0.00000000   0.00000000   0.00000000   0.00000000  -0.00000000
Cu   0.00000000   0.00000000   2.84111000   0.00000000   0.00000000   0.00000000
Cu   0.00000000   0.00000000   5.68222000   0.00000000   0.00000000  -0.00000000
Cu   0.00000000   0.00000000   8.52334000   0.00000000  -0.00000000   0.00000000
Cu   0.00000000   2.84111000   0.00000000   0.00000000  -0.00000000  -0.00000000
Cu   0.00000000   2.84111000   2.84111000   0.00000000  -0.00000000   0.00000000
Cu   0.00000000   2.84111000   5.68222000  -0.00000000  -0.00000000  -0.00000000
Cu   0.00000000   2.84111000   8.52334000   0.00000000  -0.00000000   0.00000000
Cu   0.00000000   5.68222000   0.00000000  -0.00000000   0.00000000   0.00000000
Cu   0.00000000   5.68222000   2.84111000  -0.00000000   0.00000000  -0.00000000
Cu   0.00000000   5.68222000   5.68222000   0.00000000   0.00000000  -0.00000000
Cu   0.00000000   5.68222000   8.52334000   0.00000000   0.00000000   0.00000000
Cu   0.00000000   8.52334000   0.00000000   0.00000000   0.00000000  -0.00000000
Cu   0.00000000   8.52334000   2.84111000  -0.00000000   0.00000000  -0.00000000
Cu   0.00000000   8.52334000   5.68222000   0.00000000  -0.00000000  -0.00000000
Cu   0.00000000   8.52334000   8.52334000   0.00000000   0.00000000   0.00000000
Cu   2.84111000   0.00000000   0.00000000  -0.00000000   0.00000000  -0.00000000
Cu   2.84111000   0.00000000   2.84111000  -0.00000000   0.00000000   0.00000000
Cu   2.84111000   0.00000000   5.68222000   0.00000000   0.00000000  -0.00000000
Cu   2.84111000   0.00000000   8.52334000  -0.00000000  -0.00000000   0.00000000
Cu   2.84111000   2.84111000   0.00000000  -0.00000000  -0.00000000  -0.00000000
Cu   2.84111000   2.84111000   2.84111000  -0.00000000  -0.00000000  -0.00000000
Cu   2.84111000   2.84111000   5.68222000   0.00000000  -0.00000000  -0.00000000
Cu   2.84111000   2.84111000   8.52334000  -0.00000000  -0.00000000   0.00000000
Cu   2.84111000   5.68222000   0.00000000   0.00000000   0.00000000  -0.00000000
Cu   2.84111000   5.68222000   2.84111000   0.00000000   0.00000000  -0.00000000
Cu   2.84111000   5.68222000   5.68222000   0.00000000   0.00000000  -0.00000000
Cu   2.84111000   5.68222000   8.52334000   0.00000000   0.00000000   0.00000000
Cu   2.84111000   8.52334000   0.00000000  -0.00000000  -0.00000000  -0.00000000
Cu   2.84111000   8.52334000   2.84111000  -0.00000000   0.00000000   0.00000000
Cu   2.84111000   8.52334000   5.68222000  -0.00000000  -0.00000000   0.00000000
Cu   2.84111000   8.52334000   8.52334000  -0.00000000  -0.00000000   0.00000000
Cu   5.68222000   0.00000000   0.00000000   0.00000000   0.00000000   0.00000000
Cu   5.68222000   0.00000000   2.84111000  -0.00000000   0.00000000   0.00000000
Cu   5.68222000   0.00000000   5.68222000  -0.00000000   0.00000000  -0.00000000
Cu   5.68222000   0.00000000   8.52334000   0.00000000  -0.00000000   0.00000000
Cu   5.68222000   2.84111000   0.00000000   0.00000000   0.00000000  -0.00000000
Cu   5.68222000   2.84111000   2.84111000  -0.00000000  -0.00000000  -0.00000000
Cu   5.68222000   2.84111000   5.68222000   0.00000000  -0.00000000  -0.00000000
Cu   5.68222000   2.84111000   8.52334000   0.00000000   0.00000000   0.00000000
Cu   5.68222000   5.68222000   0.00000000  -0.00000000  -0.00000000  -0.00000000
Cu   5.68222000   5.68222000   2.84111000  -0.00000000   0.00000000   0.00000000
Cu   5.68222000   5.68222000   5.68222000   0.00000000  -0.00000000  -0.00000000
Cu   5.68222000   5.68222000   8.52334000   0.00000000  -0.00000000   0.00000000
Cu   5.68222000   8.52334000   0.00000000  -0.00000000   0.00000000  -0.00000000
Cu   5.68222000   8.52334000   2.84111000   0.00000000  -0.00000000   0.00000000
Cu   5.68222000   8.52334000   5.68222000   0.00000000   0.00000000  -0.00000000
Cu   5.68222000   8.52334000   8.52334000   0.00000000   0.00000000   0.00000000
Cu   8.52334000   0.00000000   0.00000000  -0.00000000  -0.00000000  -0.00000000
Cu   8.52334000   0.00000000   2.84111000   0.00000000   0.00000000   0.00000000
Cu   8.52334000   11.36440000   5.68222000  -0.00000000   0.00000000   0.00000000
Cu   8.52334000   0.00000000   8.52334000  -0.00000000  -0.00000000   0.00000000
Cu   8.52334000   2.84111000   0.00000000  -0.00000000   0.00000000  -0.00000000
Cu   8.52334000   2.84111000   2.84111000   0.00000000  -0.00000000   0.00000000
Cu   8.52334000   2.84111000   5.68222000  -0.00000000  -0.00000000  -0.00000000
Cu   8.52334000   2.84111000   8.52334000  -0.00000000  -0.00000000  -0.00000000
Cu   8.52334000   5.68222000   0.00000000   0.00000000  -0.00000000  -0.00000000
Cu   8.52334000   5.68222000   2.84111000  -0.00000000   0.00000000   0.00000000
Cu   8.52334000   5.68222000   5.68222000  -0.00000000   0.00000000  -0.00000000
Cu   8.52334000   5.68222000   8.52334000  -0.00000000  -0.00000000   0.00000000
Cu   8.52334000   8.52334000   0.00000000   0.00000000   0.00000000  -0.00000000
Cu   8.52334000   8.52334000   2.84111000   0.00000000  -0.00000000   0.00000000
Cu   8.52334000   8.52334000   5.68222000  -0.00000000  -0.00000000  -0.00000000
Cu   8.52334000   8.52334000   8.52334000  -0.00000000   0.00000000   0.00000000
Cu   1.42056000   1.42056000   1.42056000  -0.00000000   0.00000000  -0.00000000
Cu   1.42056000   1.42056000   4.26167000  -0.00000000   0.00000000  -0.00000000
Cu   1.42056000   1.42056000   7.10278000   0.00000000   0.00000000   0.00000000
Cu   1.42056000   1.42056000   9.94389000   0.00000000   0.00000000  -0.00000000
Cu   1.42056000   4.26167000   1.42056000   0.00000000   0.00000000  -0.00000000
Cu   1.42056000   4.26167000   4.26167000   0.00000000   0.00000000   0.00000000
Cu   1.42056000   4.26167000   7.10278000   0.00000000  -0.00000000  -0.00000000
Cu   1.42056000   4.26167000   9.94389000   0.00000000  -0.00000000  -0.00000000
Cu   1.42056000   7.10278000   1.42056000   0.00000000  -0.00000000  -0.00000000
Cu   1.42056000   7.10278000   4.26167000   0.00000000   0.00000000   0.00000000
Cu   1.42056000   7.10278000   7.10278000   0.00000000   0.00000000  -0.00000000
Cu   1.42056000   7.10278000   9.94389000   0.00000000   0.00000000  -0.00000000
Cu   1.42056000   9.94389000   1.42056000  -0.00000000   0.00000000   0.00000000
Cu   1.42056000   9.94389000   4.26167000   0.00000000  -0.00000000   0.00000000
Cu   1.42056000   9.94389000   7.10278000   0.00000000  -0.00000000  -0.00000000
Cu   1.42056000   9.94389000   9.94389000   0.00000000  -0.00000000  -0.00000000
Cu   4.26167000   1.42056000   1.42056000   0.00000000   0.00000000  -0.00000000
Cu   4.26167000   1.42056000   4.26167000  -0.00000000   0.00000000   0.00000000
Cu   4.26167000   1.42056000   7.10278000  -0.00000000   0.00000000  -0.00000000
Cu   4.26167000   1.42056000   9.94389000  -0.00000000   0.00000000   0.00000000
Cu   4.26167000   4.26167000   1.42056000   0.00000000   0.00000000  -0.00000000
Cu   4.26167000   4.26167000   4.26167000  -0.00000000   0.00000000   0.00000000
Cu   4.26167000   4.26167000   7.10278000   0.00000000  -0.00000000  -0.00000000
Cu   4.26167000   4.26167000   9.94389000   0.00000000   0.00000000   0.00000000
Cu   4.26167000   7.10278000   1.42056000   0.00000000  -0.00000000  -0.00000000
Cu   4.26167000   7.10278000   4.26167000   0.00000000  -0.00000000   0.00000000
Cu   4.26167000   7.10278000   7.10278000  -0.00000000   0.00000000   0.00000000
Cu   4.26167000   7.10278000   9.94389000   0.00000000   0.00000000  -0.00000000
Cu   4.26167000   9.94389000   1.42056000   0.00000000  -0.00000000  -0.00000000
Cu   4.26167000   9.94389000   4.26167000   0.00000000  -0.00000000   0.00000000
Cu   4.26167000   9.94389000   7.10278000  -0.00000000  -0.00000000   0.00000000
Cu   4.26167000   9.94389000   9.94389000   0.00000000  -0.00000000   0.00000000
Cu   7.10278000   1.42056000   1.42056000  -0.00000000   0.00000000  -0.00000000
Cu   7.10278000   1.42056000   4.26167000   0.00000000  -0.00000000   0.00000000
Cu   7.10278000   1.42056000   7.10278000   0.00000000  -0.00000000   0.00000000
Cu   7.10278000   1.42056000   9.94389000  -0.00000000  -0.00000000   0.00000000
Cu   7.10278000   4.26167000   1.42056000   0.00000000  -0.00000000  -0.00000000
Cu   7.10278000   4.26167000   4.26167000  -0.00000000   0.00000000   0.00000000
Cu   7.10278000   4.26167000   7.10278000  -0.00000000   0.00000000  -0.00000000
Cu   7.10278000   4.26167000   9.94389000  -0.00000000   0.00000000  -0.00000000
Cu   7.10278000   7.10278000   1.42056000   0.00000000   0.00000000  -0.00000000
Cu   7.10278000   7.10278000   4.26167000   0.00000000   0.00000000   0.00000000
Cu   7.10278000   7.10278000   7.10278000   0.00000000   0.00000000   0.00000000
Cu   7.10278000   7.10278000   9.94389000  -0.00000000   0.00000000  -0.00000000
Cu   7.10278000   9.94389000   1.42056000  -0.00000000   0.00000000  -0.00000000
Cu   7.10278000   9.94389000   4.26167000  -0.00000000  -0.00000000   0.00000000
Cu   7.10278000   9.94389000   7.10278000   0.00000000   0.00000000   0.00000000
Cu   7.10278000   9.94389000   9.94389000   0.00000000   0.00000000  -0.00000000
Cu   9.94389000   1.42056000   1.42056000   0.00000000   0.00000000   0.00000000
Cu   9.94389000   1.42056000   4.26167000  -0.00000000   0.00000000  -0.00000000
Cu   9.94389000   1.42056000   7.10278000  -0.00000000   0.00000000   0.00000000
Cu   9.94389000   1.42056000   9.94389000  -0.00000000  -0.00000000  -0.00000000
Cu   9.94389000   4.26167000   1.42056000  -0.00000000  -0.00000000  -0.00000000
Cu   9.94389000   4.26167000   4.26167000  -0.00000000  -0.00000000  -0.00000000
Cu   9.94389000   4.26167000   7.10278000  -0.00000000  -0.00000000  -0.00000000
Cu   9.94389000   4.26167000   9.94389000  -0.00000000  -0.00000000   0.00000000
Cu   9.94389000   7.10278000   1.42056000   0.00000000  -0.00000000   0.00000000
Cu   9.94389000   7.10278000   4.26167000  -0.00000000  -0.00000000   0.00000000
Cu   9.94389000   7.10278000   7.10278000  -0.00000000   0.00000000  -0.00000000
Cu   9.94389000   7.10278000   9.94389000  -0.00000000   0.00000000   0.00000000
Cu   9.94389000   9.94389000   1.42056000  -0.00000000  -0.00000000  -0.00000000
Cu   9.94389000   9.94389000   4.26167000  -0.00000000  -0.00000000   0.00000000
Cu   9.94389000   9.94389000   7.10278000  -0.00000000  -0.00000000   0.00000000
Cu   9.94389000   9.94389000   9.94389000  -0.00000000  -0.00000000  -0.00000000
128
Lattice="11.4397116800045 0.0 0.0 0.0 11.4397116800045 0.0 0.0 0.0 11.4397116800045" Properties=species:S:1:pos:R:3:forces:R:3 virial="41.20781865748136 1.987968376918852e-13 -6.89991087491965e-14 1.987968376918852e-13 41.207818657481454 6.564317730124666e-14 -6.89991087491965e-14 6.564317730124666e-14 41.20781865748155" label=1 energy=-471.723753697906 stress="-0.027525447545063496 -1.3278965269905253e-16 4.608910178717579e-17 -1.3278965269905253e-16 -0.02752544754506356 -4.384745158474262e-17 4.608910178717579e-17 -4.384745158474262e-17 -0.027525447545063624" free_energy=-471.723753697906 pbc="T T T"
Cu   0.00000000   0.00000000   0.00000000   0.00000000   0.00000000   0.00000000
Cu   0.00000000   0.00000000   2.85993000   0.00000000  -0.00000000  -0.00000000
Cu   0.00000000   0.00000000   5.71986000   0.00000000  -0.00000000   0.00000000
Cu   0.00000000   0.00000000   8.57978000  -0.00000000   0.00000000  -0.00000000
Cu   0.00000000   2.85993000   0.00000000   0.00000000  -0.00000000  -0.00000000
Cu   0.00000000   2.85993000   2.85993000   0.00000000   0.00000000  -0.00000000
Cu   0.00000000   2.85993000   5.71986000   0.00000000   0.00000000   0.00000000
Cu   0.00000000   2.85993000   8.57978000   0.00000000  -0.00000000  -0.00000000
Cu   11.43970000   5.71986000   0.00000000   0.00000000   0.00000000  -0.00000000
Cu   0.00000000   5.71986000   2.85993000  -0.00000000  -0.00000000   0.00000000
Cu   0.00000000   5.71986000   5.71986000  -0.00000000   0.00000000   0.00000000
Cu   0.00000000   5.71986000   8.57978000  -0.00000000   0.00000000  -0.00000000
Cu   0.00000000   8.57978000   0.00000000  -0.00000000  -0.00000000   0.00000000
Cu   0.00000000   8.57978000   2.85993000  -0.00000000   0.00000000  -0.00000000
Cu   0.00000000   8.57978000   5.71986000  -0.00000000   0.00000000   0.00000000
Cu   0.00000000   8.57978000   8.57978000  -0.00000000  -0.00000000  -0.00000000
Cu   2.85993000   0.00000000   0.00000000  -0.00000000   0.00000000  -0.00000000
Cu   2.85993000   0.00000000   2.85993000  -0.00000000  -0.00000000   0.00000000
Cu   2.85993000   0.00000000   5.71986000   0.00000000   0.00000000  -0.00000000
Cu   2.85993000   0.00000000   8.57978000  -0.00000000   0.00000000  -0.00000000
Cu   2.85993000   2.85993000   0.00000000  -0.00000000   0.00000000   0.00000000
Cu   2.85993000   2.85993000   2.85993000  -0.00000000  -0.00000000   0.00000000
Cu   2.85993000   2.85993000   5.71986000  -0.00000000   0.00000000   0.00000000
Cu   2.85993000   2.85993000   8.57978000  -0.00000000  -0.00000000  -0.00000000
Cu   2.85993000   5.71986000   0.00000000   0.00000000   0.00000000   0.00000000
Cu   2.85993000   5.71986000   2.85993000   0.00000000   0.00000000  -0.00000000
Cu   2.85993000   5.71986000   5.71986000   0.00000000   0.00000000   0.00000000
Cu   2.85993000   5.71986000   8.57978000   0.00000000   0.00000000   0.00000000
Cu   2.85993000   8.57978000   0.00000000  -0.00000000  -0.00000000   0.00000000
Cu   2.85993000   8.57978000   2.85993000   0.00000000   0.00000000  -0.00000000
Cu   2.85993000   8.57978000   5.71986000   0.00000000   0.00000000   0.00000000
Cu   2.85993000   8.57978000   8.57978000   0.00000000  -0.00000000  -0.00000000
Cu   5.71986000   0.00000000   0.00000000   0.00000000   0.00000000  -0.00000000
Cu   5.71986000   11.43970000   2.85993000  -0.00000000   0.00000000   0.00000000
Cu   5.71986000   0.00000000   5.71986000   0.00000000  -0.00000000  -0.00000000
Cu   5.71986000   0.00000000   8.57978000   0.00000000  -0.00000000   0.00000000
Cu   5.71986000   2.85993000   0.00000000   0.00000000   0.00000000  -0.00000000
Cu   5.71986000   2.85993000   2.85993000  -0.00000000  -0.00000000   0.00000000
Cu   5.71986000   2.85993000   5.71986000   0.00000000   0.00000000  -0.00000000
Cu   5.71986000   2.85993000   8.57978000   0.00000000   0.00000000   0.00000000
Cu   5.71986000   5.71986000   0.00000000  -0.00000000   0.00000000  -0.00000000
Cu   5.71986000   5.71986000   2.85993000  -0.00000000  -0.00000000   0.00000000
Cu   5.71986000   5.71986000   5.71986000  -0.00000000   0.00000000  -0.00000000
Cu   5.71986000   5.71986000   8.57978000   0.00000000  -0.00000000  -0.00000000
Cu   5.71986000   8.57978000   0.00000000  -0.00000000  -0.00000000  -0.00000000
Cu   5.71986000   8.57978000   2.85993000  -0.00000000   0.00000000  -0.00000000
Cu   5.71986000   8.57978000   5.71986000  -0.00000000  -0.00000000   0.00000000
Cu   5.71986000   8.57978000   8.57978000   0.00000000  -0.00000000  -0.00000000
Cu   8.57978000   0.00000000   0.00000000  -0.00000000  -0.00000000   0.00000000
Cu   8.57978000   0.00000000   2.85993000   0.00000000  -0.00000000  -0.00000000
Cu   8.57978000   0.00000000   5.71986000  -0.00000000   0.00000000   0.00000000
Cu   8.57978000   0.00000000   8.57978000  -0.00000000  -0.00000000  -0.00000000
Cu   8.57978000   2.85993000   0.00000000  -0.00000000  -0.00000000  -0.00000000
Cu   8.57978000   2.85993000   2.85993000  -0.00000000  -0.00000000   0.00000000
Cu   8.57978000   2.85993000   5.71986000   0.00000000   0.00000000  -0.00000000
Cu   8.57978000   2.85993000   8.57978000  -0.00000000   0.00000000  -0.00000000
Cu   8.57978000   5.71986000   0.00000000  -0.00000000   0.00000000  -0.00000000
Cu   8.57978000   5.71986000   2.85993000   0.00000000   0.00000000   0.00000000
Cu   8.57978000   5.71986000   5.71986000   0.00000000  -0.00000000   0.00000000
Cu   8.57978000   5.71986000   8.57978000  -0.00000000  -0.00000000   0.00000000
Cu   8.57978000   8.57978000   0.00000000  -0.00000000  -0.00000000   0.00000000
Cu   8.57978000   8.57978000   2.85993000   0.00000000  -0.00000000  -0.00000000
Cu   8.57978000   8.57978000   5.71986000   0.00000000   0.00000000  -0.00000000
Cu   8.57978000   8.57978000   8.57978000  -0.00000000   0.00000000  -0.00000000
Cu   1.42996000   1.42996000   1.42996000  -0.00000000   0.00000000  -0.00000000
Cu   1.42996000   1.42996000   4.28989000  -0.00000000   0.00000000  -0.00000000
Cu   1.42996000   1.42996000   7.14982000  -0.00000000  -0.00000000   0.00000000
Cu   1.42996000   1.42996000   10.00970000  -0.00000000  -0.00000000  -0.00000000
Cu   1.42996000   4.28989000   1.42996000  -0.00000000  -0.00000000   0.00000000
Cu   1.42996000   4.28989000   4.28989000  -0.00000000  -0.00000000  -0.00000000
Cu   1.42996000   4.28989000   7.14982000  -0.00000000  -0.00000000   0.00000000
Cu   1.42996000   4.28989000   10.00970000   0.00000000   0.00000000  -0.00000000
Cu   1.42996000   7.14982000   1.42996000  -0.00000000   0.00000000  -0.00000000
Cu   1.42996000   7.14982000   4.28989000   0.00000000  -0.00000000  -0.00000000
Cu   1.42996000   7.14982000   7.14982000   0.00000000  -0.00000000   0.00000000
Cu   1.42996000   7.14982000   10.00970000   0.00000000  -0.00000000   0.00000000
Cu   1.42996000   10.00970000   1.42996000  -0.00000000  -0.00000000   0.00000000
Cu   1.42996000   10.00970000   4.28989000  -0.00000000   0.00000000  -0.00000000
Cu   1.42996000   10.00970000   7.14982000  -0.00000000   0.00000000   0.00000000
Cu   1.42996000   10.00970000   10.00970000   0.00000000   0.00000000   0.00000000
Cu   4.28989000   1.42996000   1.42996000   0.00000000   0.00000000   0.00000000
Cu   4.28989000   1.42996000   4.28989000   0.00000000   0.00000000  -0.00000000
Cu   4.28989000   1.42996000   7.14982000  -0.00000000  -0.00000000   0.00000000
Cu   4.28989000   1.42996000   10.00970000   0.00000000   0.00000000   0.00000000
Cu   4.28989000   4.28989000   1.42996000   0.00000000  -0.00000000  -0.00000000
Cu   4.28989000   4.28989000   4.28989000   0.00000000   0.00000000   0.00000000
Cu   4.28989000   4.28989000   7.14982000  -0.00000000   0.00000000  -0.00000000
Cu   4.28989000   4.28989000   10.00970000  -0.00000000   0.00000000   0.00000000
Cu   4.28989000   7.14982000   1.42996000  -0.00000000  -0.00000000  -0.00000000
Cu   4.28989000   7.14982000   4.28989000   0.00000000  -0.00000000   0.00000000
Cu   4.28989000   7.14982000   7.14982000   0.00000000   0.00000000  -0.00000000