LAMMPS data file via write_data, version 22 Jul 2025, timestep = 14, units = metal

108 atoms
3 atom types

0 7.668573 xlo xhi
0 6.641179 ylo yhi
0 25.045091 zlo zhi
3.834287 0 0 xy xz yz

Masses

1 63.55
2 63.55
3 63.55

Atoms # atomic

1 3 1.268361999999999 0.728149 0.08062507002257502 0 0 0
11 3 2.572459999999998 1.482358 2.128157955484449 0 0 0
3 3 6.3809 0.725266 0.06344938415245038 0 0 0
8 3 6.402107999999998 5.177412999999999 0.058692680795934496 0 0 0
10 3 7.649517999999993 1.483731 2.122077809752228 0 0 0
12 3 5.106675999999998 1.4624389999999998 2.1227044198358365 0 0 0
14 3 3.8497409999999994 3.700935 2.126230207541023 0 0 0
15 3 6.371336999999999 3.6905479999999997 2.12416515353784 0 0 0
17 3 5.1218 5.886682 2.123169754677518 0 0 0
18 3 7.649268999999994 5.895144 2.127544227322129 0 0 0
20 3 6.373732 6.635532 4.191124680411477 0 0 0
26 3 5.111889999999999 4.413935 4.190519779476736 0 0 0
9 3 8.947257 5.155131 0.06989171063780063 0 0 0
13 3 8.938872 3.696291 2.123194904994264 0 0 0
16 3 10.214760999999992 5.909188 2.1253352829852927 0 0 0
21 3 8.949447 6.627054999999999 4.1900186162267765 0 0 0
22 3 8.933395 2.225344 4.187483809767675 0 0 0
27 3 7.670437 4.408895 4.185216394710758 0 0 0
28 3 1.2627659999999992 0.7339609999999999 6.246461142371745 0 0 0
31 3 2.5741059999999996 2.949338 6.241446295124749 0 0 0
38 3 2.547213 1.465794 8.307855712762382 0 0 0
19 3 3.8434249999999994 6.635927 4.179244490613238 0 0 0
23 3 3.8434079999999984 2.20815 4.183068208444988 0 0 0
24 3 6.381059999999998 2.194328 4.184744551331524 0 0 0
29 3 3.836207 0.731839 6.245979214914305 0 0 0
30 3 6.397944999999999 0.750989 6.2485839518997945 0 0 0
32 3 5.107092 2.951772 6.24646260621259 0 0 0
33 3 7.652025999999999 2.969191 6.2515048389182395 0 0 0
34 3 3.8499799999999995 5.170879 6.256792193613134 0 0 0
35 3 6.372855999999999 5.149181 6.249197964660929 0 0 0
37 3 7.662148999999994 1.4778509999999996 8.306340664835785 0 0 0
42 3 6.375977999999996 3.672214 8.309225579155997 0 0 0
44 3 5.1300799999999995 5.906153999999998 8.308964366855509 0 0 0
25 3 10.229391 4.435707 4.18326871153678 0 0 0
36 3 8.959903 5.146729 6.245716111386769 0 0 0
40 3 8.962661 3.6806769999999993 8.307590298580463 0 0 0
43 3 10.204867 5.906225 8.308723364304544 0 0 0
41 3 3.8290359999999994 3.6731509999999994 8.317175727487813 0 0 0
47 3 2.5404039999999997 0.00921 10.367694475459036 0 0 0
58 3 3.4432359999999997 2.970092 12.595788505919963 0 0 0
39 3 5.100295999999999 1.488813 8.309864201704732 0 0 0
46 3 7.667803 0.016685999999999996 10.356288849780722 0 0 0
48 3 5.113367 0.012469999999999998 10.369825008269718 0 0 0
50 3 3.843064 2.215828 10.380582470624162 0 0 0
51 3 6.392444 2.223933 10.370548819904819 0 0 0
53 3 5.127711999999999 4.446395999999999 10.36343015758608 0 0 0
54 3 7.660397999999999 4.414654 10.360887199199425 0 0 0
57 3 7.301601999999993 0.721032 12.59094251377934 0 0 0
61 3 4.732032 5.175717 12.581082123543956 0 0 0
45 3 7.680498999999996 5.903745999999999 8.308279486742512 0 0 0
49 3 8.938997999999993 2.208727 10.368651193308553 0 0 0
52 3 10.218086999999993 4.424812 10.373171868850925 0 0 0
60 3 8.573194999999998 2.941718 12.59455651579495 0 0 0
55 3 2.189495 0.7350459999999999 12.592308669688837 0 0 0
64 3 0.901577 1.472026 14.647609059952558 0 0 0
65 3 3.4554349999999987 1.4757619999999996 14.643757614563118 0 0 0
67 3 2.162621 3.684259 14.655725562281827 0 0 0
70 3 3.468764999999998 5.889688 14.6451015009552 0 0 0
79 3 3.4513889999999976 4.445847999999999 16.70533736351156 0 0 0
56 3 4.7164129999999975 0.7312329999999999 12.592737934229602 0 0 0
59 3 6.015998999999998 2.9668099999999997 12.586657148771236 0 0 0
62 3 7.291075999999993 5.156781 12.5873282782391 0 0 0
66 3 6.006839 1.481987 14.64087986663038 0 0 0
68 3 4.744707999999999 3.690621 14.650310349471813 0 0 0
69 3 7.274198999999997 3.697388 14.655367406607619 0 0 0
71 3 5.994 5.903066 14.647248184749968 0 0 0
77 3 4.715016 2.194108 16.709652446746293 0 0 0
80 3 6.000051999999997 4.442946999999999 16.713434006176332 0 0 0
63 3 9.823482999999992 5.17483 12.58949036226952 0 0 0
72 3 8.572496999999993 5.890334 14.651014565366813 0 0 0
75 3 9.839140999999998 6.630467 16.7076222263509 0 0 0
81 3 8.572236999999998 4.441925 16.719102263932697 0 0 0
73 3 0.8921239999999998 0.0041789999999999996 16.716937864497204 0 0 0
74 3 3.450072999999999 0.013635999999999999 16.705515510201998 0 0 0
76 3 2.179067 2.203431 16.711613823701093 0 0 0
82 3 2.165837 0.735746 18.776785568377644 0 0 0
85 3 3.442203999999998 2.958581 18.765822275410873 0 0 0
91 3 0.8909039999999996 1.465959 20.83746982618806 0 0 0
92 3 3.458381999999998 1.491158 20.82847011790412 0 0 0
94 3 2.172596 3.670633 20.83618586798723 0 0 0
97 3 3.4524799999999995 5.904710999999998 20.828677958285564 0 0 0
78 3 7.292367999999996 2.204705 16.699993500871763 0 0 0
83 3 4.717053 0.734849 18.77131565917102 0 0 0
84 3 7.274616 0.743702 18.771429690175225 0 0 0
86 3 6.017962999999996 2.949596 18.76303635022053 0 0 0
88 3 4.724266999999999 5.148624 18.774017415864257 0 0 0
89 3 7.278307999999998 5.16493 18.775706814078838 0 0 0
93 3 6.004099999999997 1.4889959999999998 20.832163541450278 0 0 0
95 3 4.740345 3.6912199999999995 20.829301294083216 0 0 0
96 3 7.299677999999999 3.6983559999999995 20.837568199956113 0 0 0
87 3 8.545485 2.939058 18.769793423261678 0 0 0
90 3 9.844908 5.153867 18.777797672828925 0 0 0
99 3 8.57996 5.911845 20.828900570275582 0 0 0
2 3 3.8325469999999986 0.754347 0.06059361102030248 0 0 1
4 3 2.564354 2.969438 0.06934467024450754 0 0 1
7 3 3.817799000000001 5.165103 0.06626312399219668 0 0 1
101 3 3.4629849999999984 0.0008539999999999999 22.884140041823695 0 0 0
103 3 2.1746499999999984 2.202373 22.901773602389902 0 0 0
106 3 3.4703929999999983 4.426307 22.883831411442735 0 0 0
5 3 5.111402999999995 2.944381 0.06357972824886958 0 0 1
6 3 7.651892 2.960359 0.06342546198264594 0 0 1
98 3 5.996969 5.909654 20.838717303895866 0 0 0
100 3 4.710282999999999 6.6377989999999985 22.902721908040963 0 0 0
102 3 6.015905 0.000186 22.885223246701266 0 0 0
104 3 4.709807 2.206557 22.89218945455412 0 0 0
105 3 7.287533999999996 2.193912 22.893439661848806 0 0 0
107 3 6.017361999999997 4.428696999999999 22.8903545376448 0 0 0
108 3 8.575337999999995 4.434976 22.88979925306962 0 0 0

Velocities

1 0 0 0
11 0 0 0
3 0 0 0
8 0 0 0
10 0 0 0
12 0 0 0
14 0 0 0
15 0 0 0
17 0 0 0
18 0 0 0
20 0 0 0
26 0 0 0
9 0 0 0
13 0 0 0
16 0 0 0
21 0 0 0
22 0 0 0
27 0 0 0
28 0 0 0
31 0 0 0
38 0 0 0
19 0 0 0
23 0 0 0
24 0 0 0
29 0 0 0
30 0 0 0
32 0 0 0
33 0 0 0
34 0 0 0
35 0 0 0
37 0 0 0
42 0 0 0
44 0 0 0
25 0 0 0
36 0 0 0
40 0 0 0
43 0 0 0
41 0 0 0
47 0 0 0
58 0 0 0
39 0 0 0
46 0 0 0
48 0 0 0
50 0 0 0
51 0 0 0
53 0 0 0
54 0 0 0
57 0 0 0
61 0 0 0
45 0 0 0
49 0 0 0
52 0 0 0
60 0 0 0
55 0 0 0
64 0 0 0
65 0 0 0
67 0 0 0
70 0 0 0
79 0 0 0
56 0 0 0
59 0 0 0
62 0 0 0
66 0 0 0
68 0 0 0
69 0 0 0
71 0 0 0
77 0 0 0
80 0 0 0
63 0 0 0
72 0 0 0
75 0 0 0
81 0 0 0
73 0 0 0
74 0 0 0
76 0 0 0
82 0 0 0
85 0 0 0
91 0 0 0
92 0 0 0
94 0 0 0
97 0 0 0
78 0 0 0
83 0 0 0
84 0 0 0
86 0 0 0
88 0 0 0
89 0 0 0
93 0 0 0
95 0 0 0
96 0 0 0
87 0 0 0
90 0 0 0
99 0 0 0
2 0 0 0
4 0 0 0
7 0 0 0
101 0 0 0
103 0 0 0
106 0 0 0
5 0 0 0
6 0 0 0
98 0 0 0
100 0 0 0
102 0 0 0
104 0 0 0
105 0 0 0
107 0 0 0
108 0 0 0
