LAMMPS data file via write_data, version 22 Jul 2025, timestep = 14, units = metal

108 atoms
3 atom types

0 7.668573 xlo xhi
0 6.641179 ylo yhi
0 25.045091 zlo zhi
3.834287 0 0 xy xz yz

Masses

1 63.55
2 63.55
3 63.55

Atoms # atomic

11 3 2.573847 1.474962 2.1204597486786376 0 0 0
25 3 2.563489999999998 4.415417 4.169962723524782 0 0 0
2 3 3.8398289999999973 0.751301 0.04346459106269141 0 0 0
3 3 6.376966999999993 0.737781 0.05179288299732004 0 0 0
7 3 3.8459069999999986 5.178638 0.040216121690395026 0 0 0
8 3 6.371371999999999 5.179632 0.04626789156978072 0 0 0
10 3 7.665803999999996 1.491785 2.110251012661273 0 0 0
12 3 5.107523 1.476562 2.111624945169348 0 0 0
14 3 3.8472079999999966 3.675193 2.1035998511919387 0 0 0
15 3 6.386018 3.6823529999999995 2.101884947528951 0 0 0
17 3 5.100216 5.910001 2.1202954085191013 0 0 0
18 3 7.653409999999994 5.902205 2.1126023423537723 0 0 0
21 3 5.131482 0.018826999999999997 4.181405913524853 0 0 0
23 3 3.8515599999999974 2.2180899999999997 4.190834585956809 0 0 0
26 3 5.117295 4.407817999999999 4.176104348589801 0 0 0
9 3 8.928882999999994 5.18 0.04560558458451287 0 0 0
13 3 8.929872 3.686727 2.11602945341668 0 0 0
16 3 10.220033999999993 5.894752 2.105940886275563 0 0 0
19 3 11.484402 6.639727 4.178293895260263 0 0 0
28 3 1.264815 0.742509 6.253479288220133 0 0 0
29 3 3.8220029999999987 0.723078 6.251854981982081 0 0 0
31 3 2.55733 2.96522 6.258643172902754 0 0 0
38 3 2.553862999999999 1.462138 8.318310223251984 0 0 0
20 3 6.395054 6.629353 4.188669242688418 0 0 0
24 3 6.392828999999996 2.211135 4.179187426760867 0 0 0
27 3 7.652473999999993 4.443822 4.18283233040214 0 0 0
30 3 6.405868999999999 0.7446779999999997 6.256461968972846 0 0 0
32 3 5.111028999999997 2.939955 6.258521856097982 0 0 0
33 3 7.654996 2.93772 6.252732306888799 0 0 0
34 3 3.849789 5.160586 6.242272567582464 0 0 0
35 3 6.372733 5.149128 6.25793097562513 0 0 0
37 3 7.651039999999997 1.488252 8.33363212576751 0 0 0
39 3 5.120486 1.4884549999999996 8.316886207272116 0 0 0
22 3 8.933037999999993 2.216939 4.185728200568089 0 0 0
36 3 8.954322999999993 5.150734 6.234874653172882 0 0 0
49 3 1.290974 2.204205 10.386573147309528 0 0 0
55 3 1.615625 1.286619 12.5659489559569 0 0 0
58 3 2.881678 3.495546 12.555467535220568 0 0 0
41 3 3.840364999999999 3.703451 8.327230676075352 0 0 0
42 3 6.402652999999999 3.6978139999999997 8.329934862574955 0 0 0
44 3 5.109793999999999 5.891171 8.319543340752485 0 0 0
46 3 3.8538289999999997 6.624184 10.379344782007864 0 0 0
47 3 6.396955 6.636981999999998 10.386946044398961 0 0 0
48 3 5.128212 0.016213 10.387547999319967 0 0 0
50 3 3.848704 2.20272 10.383283896859352 0 0 0
51 3 6.3850459999999964 2.217614 10.397542368017277 0 0 0
53 3 5.102776 4.422911 10.393912451800661 0 0 0
54 3 7.667925 4.429002 10.393216477390308 0 0 0
56 3 4.13869 1.277944 12.566071679350747 0 0 0
57 3 6.705854999999998 1.2949229999999998 12.56780729917958 0 0 0
62 3 6.708379 5.713497 12.568703758607727 0 0 0
40 3 8.930847 3.709308 8.322021028093017 0 0 0
43 3 10.210943 5.893599999999999 8.31070399882986 0 0 0
45 3 7.6853 5.903272 8.319637600168123 0 0 0
52 3 10.211126 4.445843 10.391307993652005 0 0 0
65 3 2.862723 2.039054 14.631602459756376 0 0 0
76 3 1.606622999999999 2.765332 16.69815099987916 0 0 0
59 3 5.413197 3.519957 12.573518163799443 0 0 0
61 3 4.141443 5.737983 12.574015773855944 0 0 0
66 3 5.4218 2.046418 14.630540388982764 0 0 0
68 3 4.136996 4.260018 14.637723189983191 0 0 0
69 3 6.700708999999998 4.238937 14.636318641084571 0 0 0
71 3 5.441174999999999 6.464124 14.637178120079414 0 0 0
77 3 4.158339 2.7510679999999996 16.70521378147588 0 0 0
80 3 5.413249 4.992546 16.700843366550856 0 0 0
60 3 7.971716999999999 3.5089529999999995 12.566427728707552 0 0 0
63 3 9.262739 5.73087 12.569747672014508 0 0 0
64 3 7.981157 2.0439019999999997 14.631207536126906 0 0 0
67 3 9.268239999999993 4.24226 14.626718099260541 0 0 0
70 3 10.543193999999993 6.476311999999999 14.638835617470082 0 0 0
72 3 7.987677999999994 6.466813 14.638409270554055 0 0 0
73 3 7.985051999999993 0.573328 16.706119566546857 0 0 0
79 3 10.542111999999992 4.99787 16.70905861749212 0 0 0
74 3 2.8806139999999982 0.565786 16.70688359864605 0 0 0
82 3 1.598357 1.308847 18.774338327299322 0 0 0
85 3 2.8637730000000015 3.5003809999999995 18.768861818460383 0 0 0
75 3 5.428902999999997 0.5435659999999999 16.705940583757474 0 0 0
78 3 6.697642999999997 2.78546 16.70535646115572 0 0 0
83 3 4.147165999999997 1.29231 18.77672609525732 0 0 0
84 3 6.718505999999996 1.2763989999999998 18.77885121007441 0 0 0
86 3 5.443421999999998 3.5137759999999996 18.7746950720535 0 0 0
88 3 4.171809 5.7033499999999995 18.77798224816299 0 0 0
89 3 6.721216999999999 5.715907999999998 18.771053799213 0 0 0
96 3 6.694867 4.25634 20.845597383111993 0 0 0
98 3 5.4283689999999964 6.459723 20.8403423175422 0 0 0
81 3 7.990530999999999 4.970255 16.702262312624914 0 0 0
87 3 7.9807159999999975 3.4912879999999995 18.77136708050875 0 0 0
90 3 9.265820999999994 5.734636 18.781285330682287 0 0 0
91 3 8.002503999999993 2.041735 20.845532047921537 0 0 0
94 3 9.252402999999992 4.230148 20.841642699527913 0 0 0
97 3 10.546709 6.458846 20.848088529227695 0 0 0
99 3 7.9983369999999985 6.471289999999999 20.85088778870455 0 0 0
1 3 1.2613839999999994 0.7551309999999999 0.05157906465176558 0 0 1
4 3 2.549791 2.969419 0.05274356701907768 0 0 1
92 3 2.87402 2.032655 20.84557965250213 0 0 0
100 3 0.319437 0.549418 22.913492573183785 0 0 0
101 3 2.883964999999998 0.558205 22.91256834651273 0 0 0
103 3 1.606213 2.759062 22.91707573917159 0 0 0
5 3 5.119093999999996 2.951483 0.034908888623158996 0 0 1
93 3 5.414419999999996 2.035627 20.842389635839663 0 0 0
95 3 4.137256 4.2328909999999995 20.845907009837948 0 0 0
102 3 5.445957 0.552972 22.912577915107757 0 0 0
104 3 4.149575 2.764109 22.91472738899016 0 0 0
105 3 6.728154999999999 2.7506149999999994 22.90411702656107 0 0 0
107 3 5.429024999999999 4.993795 22.907356375796546 0 0 0
6 3 7.686726 2.961403 0.03449794946422594 0 0 1
106 3 10.534566999999992 4.970714 22.915377035987195 0 0 0
108 3 7.983063999999995 4.969539999999999 22.910395574920912 0 0 0

Velocities

11 0 0 0
25 0 0 0
2 0 0 0
3 0 0 0
7 0 0 0
8 0 0 0
10 0 0 0
12 0 0 0
14 0 0 0
15 0 0 0
17 0 0 0
18 0 0 0
21 0 0 0
23 0 0 0
26 0 0 0
9 0 0 0
13 0 0 0
16 0 0 0
19 0 0 0
28 0 0 0
29 0 0 0
31 0 0 0
38 0 0 0
20 0 0 0
24 0 0 0
27 0 0 0
30 0 0 0
32 0 0 0
33 0 0 0
34 0 0 0
35 0 0 0
37 0 0 0
39 0 0 0
22 0 0 0
36 0 0 0
49 0 0 0
55 0 0 0
58 0 0 0
41 0 0 0
42 0 0 0
44 0 0 0
46 0 0 0
47 0 0 0
48 0 0 0
50 0 0 0
51 0 0 0
53 0 0 0
54 0 0 0
56 0 0 0
57 0 0 0
62 0 0 0
40 0 0 0
43 0 0 0
45 0 0 0
52 0 0 0
65 0 0 0
76 0 0 0
59 0 0 0
61 0 0 0
66 0 0 0
68 0 0 0
69 0 0 0
71 0 0 0
77 0 0 0
80 0 0 0
60 0 0 0
63 0 0 0
64 0 0 0
67 0 0 0
70 0 0 0
72 0 0 0
73 0 0 0
79 0 0 0
74 0 0 0
82 0 0 0
85 0 0 0
75 0 0 0
78 0 0 0
83 0 0 0
84 0 0 0
86 0 0 0
88 0 0 0
89 0 0 0
96 0 0 0
98 0 0 0
81 0 0 0
87 0 0 0
90 0 0 0
91 0 0 0
94 0 0 0
97 0 0 0
99 0 0 0
1 0 0 0
4 0 0 0
92 0 0 0
100 0 0 0
101 0 0 0
103 0 0 0
5 0 0 0
93 0 0 0
95 0 0 0
102 0 0 0
104 0 0 0
105 0 0 0
107 0 0 0
6 0 0 0
106 0 0 0
108 0 0 0
