LAMMPS data file via write_data, version 22 Jul 2025, timestep = 12, units = metal

108 atoms
3 atom types

0 7.668573 xlo xhi
0 6.641179 ylo yhi
0 25.045091 zlo zhi
3.834287 0 0 xy xz yz

Masses

1 63.55
2 63.55
3 63.55

Atoms # atomic

4 3 2.543401 2.936912 0.0012212807192026568 0 0 0
11 3 2.551773 1.470922 2.085649429133395 0 0 0
25 3 2.574728 4.436438 4.16310806221868 0 0 0
6 3 7.657015999999999 2.946055 0.0038066850842657994 0 0 0
10 3 7.651411 1.470644 2.081840148981791 0 0 0
12 3 5.094196 1.4701449999999998 2.0906836285222696 0 0 0
14 3 3.843009 3.677721 2.0766807859732968 0 0 0
15 3 6.379694999999996 3.686965 2.090379779953558 0 0 0
17 3 5.120051999999999 5.899444999999998 2.096740209612395 0 0 0
18 3 7.652586999999999 5.900647 2.0963269013741272 0 0 0
26 3 5.112811 4.412531 4.175804878933788 0 0 0
13 3 8.930146999999998 3.6803869999999996 2.0889886646027973 0 0 0
16 3 10.236895 5.899014 2.0893561558578817 0 0 0
21 3 8.927643 6.625676 4.176473399698055 0 0 0
20 3 2.552245 0.019018 4.18351875850888 0 0 0
22 3 1.279532 2.208121 4.167686773164922 0 0 0
28 3 1.2712369999999997 0.743776 6.266360712949498 0 0 0
31 3 2.540226 2.961023 6.255923521314806 0 0 0
38 3 2.549880999999999 1.4699289999999998 8.343251986053781 0 0 0
19 3 7.654866999999997 0.00602 4.17781157463892 0 0 0
23 3 3.835332 2.230746 4.1740241766027975 0 0 0
24 3 6.403255 2.206219 4.172038259202256 0 0 0
29 3 3.8363269999999994 0.756544 6.257322733664388 0 0 0
30 3 6.390498 0.7348009999999999 6.261762111260982 0 0 0
32 3 5.124176 2.932701 6.262093399589668 0 0 0
34 3 3.8361929999999997 5.153737999999999 6.257301826862448 0 0 0
35 3 6.379895999999996 5.162386999999999 6.261800263595861 0 0 0
37 3 7.649669 1.484012 8.357454348064307 0 0 0
39 3 5.09549 1.4711519999999996 8.351736379325404 0 0 0
42 3 6.377822999999996 3.6791199999999997 8.349614261127726 0 0 0
27 3 7.675100999999995 4.417939 4.1821362594199085 0 0 0
33 3 7.680518999999999 2.932213 6.262145289562766 0 0 0
36 3 8.960184 5.149854 6.262660736850086 0 0 0
43 3 10.216655999999993 5.920824 8.348239373221812 0 0 0
41 3 3.832309 3.704618 8.342128199837225 0 0 0
47 3 2.562479999999999 0.010143 10.428883638637616 0 0 0
50 3 3.8243809999999963 2.200465 10.429183316838124 0 0 0
52 3 2.5704509999999967 4.408122999999999 10.429043690991548 0 0 0
55 3 1.351327 0.844309 12.52491042905516 0 0 0
58 3 2.638183999999998 3.069127 12.530221201278197 0 0 0
44 3 5.099496999999998 5.900567999999998 8.345488109832148 0 0 0
46 3 3.8518530000000006 6.636671 10.435288046392907 0 0 0
51 3 6.3730619999999965 2.196034 10.44022069723048 0 0 0
53 3 5.1207509999999985 4.434069999999999 10.435267088899005 0 0 0
57 3 6.44989 0.835294 12.530703669439022 0 0 0
62 3 6.441229999999999 5.262614 12.513598108273442 0 0 0
40 3 8.940977 3.674014999999999 8.347053347734892 0 0 0
45 3 7.67333 5.914485999999999 8.338586142535007 0 0 0
48 3 8.960645999999999 6.621650999999998 10.434589429629437 0 0 0
49 3 8.944919999999993 2.22752 10.439737688671185 0 0 0
54 3 7.685094999999993 4.427289 10.425015544012474 0 0 0
60 3 7.742749 3.071712999999999 12.530414665868252 0 0 0
65 3 2.621491 1.5666279999999997 14.610031265346388 0 0 0
73 3 0.072807 0.091897 16.68918218329213 0 0 0
76 3 1.3552399999999991 2.33797 16.693253173963704 0 0 0
56 3 3.909646999999999 0.8412899999999999 12.523158679092763 0 0 0
59 3 5.178926999999996 3.042821 12.522867831993521 0 0 0
61 3 3.8949800000000003 5.280291999999998 12.525378548468947 0 0 0
66 3 5.168966999999998 1.6032449999999996 14.61682540156758 0 0 0
68 3 3.8782029999999965 3.8141169999999995 14.612603838763869 0 0 0
69 3 6.437116999999995 3.802867 14.605504617919708 0 0 0
71 3 5.178949999999997 5.998454999999998 14.610438963823272 0 0 0
78 3 6.473759 2.334825 16.694156141952714 0 0 0
63 3 9.004932999999998 5.269762 12.523925474565567 0 0 0
64 3 7.723834999999994 1.5671929999999998 14.609478103891528 0 0 0
67 3 9.017741999999995 3.805642 14.613415706523597 0 0 0
70 3 10.274864999999993 5.998757 14.613691515227845 0 0 0
72 3 7.714485 6.010137 14.606245736947685 0 0 0
79 3 10.283574999999999 4.538519 16.708912005745862 0 0 0
81 3 7.720277 4.536018 16.692686050243008 0 0 0
74 3 2.618689999999999 0.11290099999999999 16.702960265675827 0 0 0
82 3 1.323299 0.86256 18.777315637373857 0 0 0
85 3 2.625932999999998 3.052454 18.786872509777616 0 0 0
92 3 2.613351999999998 1.584942 20.87559438682449 0 0 0
75 3 5.169921 0.10928999999999998 16.695176125030663 0 0 0
77 3 3.902481 2.3392049999999993 16.69408015201787 0 0 0
80 3 5.174578 4.523576 16.702787260489096 0 0 0
83 3 3.896137 0.84654 18.78648111030678 0 0 0
84 3 6.471903999999995 0.861954 18.77458828807855 0 0 0
86 3 5.165983 3.043363 18.78305248320698 0 0 0
88 3 3.885153 5.292578999999999 18.78911827028223 0 0 0
89 3 6.451228999999996 5.263447 18.775737526220503 0 0 0
95 3 3.901478 3.7954819999999994 20.870755175734878 0 0 0
87 3 7.722338999999999 3.07838 18.787043093578085 0 0 0
90 3 9.020748999999999 5.288349 18.789236262746062 0 0 0
99 3 7.717433999999999 6.006265 20.86333850928267 0 0 0
1 3 1.282599 0.718537 0.008851958163837922 0 0 1
7 3 3.8167969999999984 5.153409 25.04442788661146 0 0 0
101 3 2.612074 0.093508 22.95761256144736 0 0 0
106 3 2.6233969999999993 4.532906 22.95018725206272 0 0 0
2 3 3.848602 0.7209569999999997 0.0011973663848654048 0 0 1
3 3 6.395681999999997 0.7218509999999998 25.039075038965205 0 0 0
5 3 5.122988 2.941774 25.043512465021355 0 0 0
8 3 6.4087309999999995 5.176717999999999 0.009194560250239903 0 0 1
93 3 5.190887999999997 1.5894339999999998 20.87059027354439 0 0 0
96 3 6.440252 3.812358 20.86648953343968 0 0 0
98 3 5.188445 6.007811 20.86624944679495 0 0 0
102 3 5.158289999999998 0.105082 22.949578272942954 0 0 0
104 3 3.899798999999998 2.321712 22.956985877622664 0 0 0
105 3 6.469068999999999 2.343814 22.946075975514425 0 0 0
107 3 5.193883 4.533547 22.96491419885995 0 0 0
9 3 8.962237999999996 5.160563 0.007482048009097481 0 0 1
91 3 7.750296 1.582836 20.864619977204317 0 0 0
94 3 9.020173999999995 3.785822 20.872397933540103 0 0 0
97 3 10.296029999999998 6.027861 20.875135534905706 0 0 0
100 3 7.737119 0.128929 22.953141348227327 0 0 0
103 3 8.995545999999997 2.30947 22.96261366501049 0 0 0
108 3 7.732047999999995 4.551214999999999 22.955858758718033 0 0 0

Velocities

4 0 0 0
11 0 0 0
25 0 0 0
6 0 0 0
10 0 0 0
12 0 0 0
14 0 0 0
15 0 0 0
17 0 0 0
18 0 0 0
26 0 0 0
13 0 0 0
16 0 0 0
21 0 0 0
20 0 0 0
22 0 0 0
28 0 0 0
31 0 0 0
38 0 0 0
19 0 0 0
23 0 0 0
24 0 0 0
29 0 0 0
30 0 0 0
32 0 0 0
34 0 0 0
35 0 0 0
37 0 0 0
39 0 0 0
42 0 0 0
27 0 0 0
33 0 0 0
36 0 0 0
43 0 0 0
41 0 0 0
47 0 0 0
50 0 0 0
52 0 0 0
55 0 0 0
58 0 0 0
44 0 0 0
46 0 0 0
51 0 0 0
53 0 0 0
57 0 0 0
62 0 0 0
40 0 0 0
45 0 0 0
48 0 0 0
49 0 0 0
54 0 0 0
60 0 0 0
65 0 0 0
73 0 0 0
76 0 0 0
56 0 0 0
59 0 0 0
61 0 0 0
66 0 0 0
68 0 0 0
69 0 0 0
71 0 0 0
78 0 0 0
63 0 0 0
64 0 0 0
67 0 0 0
70 0 0 0
72 0 0 0
79 0 0 0
81 0 0 0
74 0 0 0
82 0 0 0
85 0 0 0
92 0 0 0
75 0 0 0
77 0 0 0
80 0 0 0
83 0 0 0
84 0 0 0
86 0 0 0
88 0 0 0
89 0 0 0
95 0 0 0
87 0 0 0
90 0 0 0
99 0 0 0
1 0 0 0
7 0 0 0
101 0 0 0
106 0 0 0
2 0 0 0
3 0 0 0
5 0 0 0
8 0 0 0
93 0 0 0
96 0 0 0
98 0 0 0
102 0 0 0
104 0 0 0
105 0 0 0
107 0 0 0
9 0 0 0
91 0 0 0
94 0 0 0
97 0 0 0
100 0 0 0
103 0 0 0
108 0 0 0
