LAMMPS data file via write_data, version 22 Jul 2025, timestep = 15, units = metal

108 atoms
3 atom types

0 7.668573 xlo xhi
0 6.641179 ylo yhi
0 25.045091 zlo zhi
3.834287 0 0 xy xz yz

Masses

1 63.55
2 63.55
3 63.55

Atoms # atomic

2 3 3.829586999999999 0.7366899999999997 0.013139227611578156 0 0 0
4 3 2.54847 2.937849 0.024799591181980666 0 0 0
11 3 2.568887999999998 1.4579379999999997 2.087872761796742 0 0 0
22 3 1.2866089999999997 2.2014129999999996 4.14449482156533 0 0 0
3 3 6.400553999999996 0.752064 0.013526236152198102 0 0 0
5 3 5.126742999999998 2.957979999999999 0.013293121641526422 0 0 0
7 3 3.8450129999999962 5.164411 0.0195366733672481 0 0 0
8 3 6.373679999999997 5.167117 0.01673982231623863 0 0 0
10 3 7.667636999999999 1.4678669999999998 2.081430465686151 0 0 0
12 3 5.1240599999999965 1.485671 2.073754381142602 0 0 0
14 3 3.84387 3.670474 2.079797619325395 0 0 0
15 3 6.401835999999999 3.699180999999999 2.0789889111873756 0 0 0
17 3 5.118034 5.918805 2.086745682217359 0 0 0
21 3 5.102943999999996 0.013164 4.140631831982168 0 0 0
13 3 8.926956999999998 3.6786849999999998 2.0854573438162167 0 0 0
16 3 10.241892 5.895091 2.0769956240128664 0 0 0
18 3 7.687172999999999 5.922056 2.0773873273308237 0 0 0
25 3 10.219373999999993 4.438143999999999 4.145950202858378 0 0 0
28 3 1.2771029999999999 0.735328 6.218993429349576 0 0 0
31 3 2.5704919999999984 2.937203 6.200869942998403 0 0 0
38 3 2.569349 1.490103 8.278983990578924 0 0 0
41 3 3.8306649999999984 3.709277 8.274739738974771 0 0 0
19 3 7.654093999999996 0.011987 4.1476384583161705 0 0 0
20 3 6.392016999999994 6.626549 4.158137046501449 0 0 0
23 3 3.8403689999999995 2.1996289999999994 4.142629180410532 0 0 0
24 3 6.398702 2.221684 4.145803183693687 0 0 0
26 3 5.112542999999996 4.423479 4.137532221395684 0 0 0
27 3 7.661746999999993 4.443875 4.146938408232045 0 0 0
29 3 3.8461969999999965 0.746608 6.217218710300818 0 0 0
30 3 6.395024999999997 0.722823 6.2096322292051 0 0 0
32 3 5.108817 2.952871 6.209821189699946 0 0 0
34 3 3.8511109999999986 5.166861999999998 6.20669838138518 0 0 0
35 3 6.372883999999997 5.154705999999999 6.213837413401384 0 0 0
39 3 5.128290999999996 1.4825419999999998 8.278956791456663 0 0 0
33 3 7.671741999999993 2.942685 6.206611041933377 0 0 0
36 3 8.92851 5.173479 6.209054892744579 0 0 0
40 3 8.959634 3.676552 8.25811208461922 0 0 0
45 3 7.674231999999999 5.900185 8.2687715590445 0 0 0
46 3 0.005907999999999997 0.0011759999999999997 10.340654324379962 0 0 0
50 3 3.816653999999997 2.215892 10.33593742830073 0 0 0
57 3 1.784255 2.497703 12.633712775899593 0 0 0
60 3 3.0844509999999983 4.724959 12.617998055606737 0 0 0
37 3 7.659353999999997 1.488377 8.28149305785156 0 0 0
42 3 6.382289999999999 3.7021849999999996 8.272570860967802 0 0 0
44 3 5.113541 5.913439 8.27998198525263 0 0 0
47 3 6.389433 6.629757 10.329057803500307 0 0 0
51 3 6.374867999999999 2.22039 10.345944063524625 0 0 0
53 3 5.129533 4.415189 10.332628029755991 0 0 0
56 3 6.918956999999996 2.504131 12.63771205726437 0 0 0
43 3 10.234978 5.918303 8.276209264029966 0 0 0
48 3 8.935313 6.637007 10.329651977262527 0 0 0
49 3 8.931543999999999 2.2319299999999997 10.334785307105069 0 0 0
52 3 10.208465999999992 4.413828999999999 10.330148637189469 0 0 0
54 3 7.682757999999999 4.429612 10.322202352283783 0 0 0
61 3 3.061621 0.303941 12.622440867060332 0 0 0
63 3 0.5155799999999999 0.29561699999999996 12.637665948518737 0 0 0
64 3 3.0760569999999996 3.258742 14.680705390213987 0 0 0
70 3 1.8052169999999992 1.027837 14.69630772277904 0 0 0
73 3 3.067848 1.7802979999999997 16.74690673457964 0 0 0
55 3 4.360173 2.511529 12.62614463639002 0 0 0
58 3 5.631505999999996 4.719463 12.62612715773883 0 0 0
62 3 5.623807999999997 0.28912099999999996 12.62236881125728 0 0 0
65 3 5.6181629999999965 3.252981 14.692937682974733 0 0 0
67 3 4.359464 5.453396 14.6857474736604 0 0 0
68 3 6.893829999999997 5.46345 14.685556736405882 0 0 0
71 3 4.348898999999997 1.020401 14.677838952047967 0 0 0
72 3 6.901440999999998 1.017577 14.68986332876271 0 0 0
74 3 5.613876999999996 1.76532 16.75098213497359 0 0 0
77 3 6.907302 3.984684999999999 16.748813814253374 0 0 0
59 3 8.163639 4.711431 12.630713694067966 0 0 0
66 3 8.183567999999996 3.24432 14.689632467157146 0 0 0
69 3 9.470786999999993 5.458435 14.685960858843309 0 0 0
78 3 9.438143999999998 3.9760179999999994 16.74704918628098 0 0 0
80 3 8.164453999999996 6.217293 16.746048774598744 0 0 0
84 3 1.793651 2.491327 18.81336058518312 0 0 0
87 3 3.048089 4.703868 18.815537264341728 0 0 0
88 3 3.063357 0.2775409999999999 18.811417235872742 0 0 0
90 3 0.49632 0.276827 18.821938934107948 0 0 0
97 3 1.788503 1.047712 20.878939143880448 0 0 0
76 3 4.328678 3.9876019999999994 16.758151509070043 0 0 0
79 3 5.619332 6.194154 16.75373310407323 0 0 0
82 3 4.330798 2.514326 18.81866781788561 0 0 0
83 3 6.883313 2.527067 18.817264354069792 0 0 0
85 3 5.641828999999997 4.725952999999999 18.81608684243634 0 0 0
89 3 5.617180999999997 0.287159 18.812544542683348 0 0 0
92 3 5.624491 3.252682 20.88170337738654 0 0 0
98 3 4.339803999999997 1.01747 20.873124911556634 0 0 0
99 3 6.909459 1.019644 20.880291474967358 0 0 0
75 3 8.165440999999992 1.7697309999999997 16.757265382055124 0 0 0
81 3 10.753161999999993 6.194629 16.752337916281974 0 0 0
86 3 8.196833999999994 4.716743 18.81837843555591 0 0 0
96 3 9.451339999999998 5.456293 20.885460083187766 0 0 0
1 3 1.283948 0.7534209999999999 0.02017877941737763 0 0 1
91 3 3.0822529999999997 3.253843 20.8845809326258 0 0 0
100 3 3.0864679999999973 1.7906689999999998 22.94089144620256 0 0 0
6 3 7.6674139999999955 2.9467499999999993 0.013949872681471352 0 0 1
94 3 4.334686 5.443317999999998 20.883179899896252 0 0 0
95 3 6.89213 5.480149 20.88471440790484 0 0 0
101 3 5.626822 1.756526 22.935449578929813 0 0 0
103 3 4.353871999999999 3.9662599999999992 22.950545645883597 0 0 0
104 3 6.896222999999999 3.987786 22.941815475878354 0 0 0
106 3 5.614312999999999 6.218304999999999 22.94373854175486 0 0 0
9 3 8.945184999999993 5.167009 0.01960204310216881 0 0 1
93 3 8.18354 3.232164 20.876167152033762 0 0 0
102 3 8.186616 1.7775279999999998 22.943977785840755 0 0 0
105 3 9.442799 3.978688 22.94830388071369 0 0 0
107 3 8.175261999999996 6.203467999999999 22.947029946717258 0 0 0
108 3 10.725091999999997 6.179977999999998 22.949670803647603 0 0 0

Velocities

2 0 0 0
4 0 0 0
11 0 0 0
22 0 0 0
3 0 0 0
5 0 0 0
7 0 0 0
8 0 0 0
10 0 0 0
12 0 0 0
14 0 0 0
15 0 0 0
17 0 0 0
21 0 0 0
13 0 0 0
16 0 0 0
18 0 0 0
25 0 0 0
28 0 0 0
31 0 0 0
38 0 0 0
41 0 0 0
19 0 0 0
20 0 0 0
23 0 0 0
24 0 0 0
26 0 0 0
27 0 0 0
29 0 0 0
30 0 0 0
32 0 0 0
34 0 0 0
35 0 0 0
39 0 0 0
33 0 0 0
36 0 0 0
40 0 0 0
45 0 0 0
46 0 0 0
50 0 0 0
57 0 0 0
60 0 0 0
37 0 0 0
42 0 0 0
44 0 0 0
47 0 0 0
51 0 0 0
53 0 0 0
56 0 0 0
43 0 0 0
48 0 0 0
49 0 0 0
52 0 0 0
54 0 0 0
61 0 0 0
63 0 0 0
64 0 0 0
70 0 0 0
73 0 0 0
55 0 0 0
58 0 0 0
62 0 0 0
65 0 0 0
67 0 0 0
68 0 0 0
71 0 0 0
72 0 0 0
74 0 0 0
77 0 0 0
59 0 0 0
66 0 0 0
69 0 0 0
78 0 0 0
80 0 0 0
84 0 0 0
87 0 0 0
88 0 0 0
90 0 0 0
97 0 0 0
76 0 0 0
79 0 0 0
82 0 0 0
83 0 0 0
85 0 0 0
89 0 0 0
92 0 0 0
98 0 0 0
99 0 0 0
75 0 0 0
81 0 0 0
86 0 0 0
96 0 0 0
1 0 0 0
91 0 0 0
100 0 0 0
6 0 0 0
94 0 0 0
95 0 0 0
101 0 0 0
103 0 0 0
104 0 0 0
106 0 0 0
9 0 0 0
93 0 0 0
102 0 0 0
105 0 0 0
107 0 0 0
108 0 0 0
