LAMMPS data file via write_data, version 22 Jul 2025, timestep = 14, units = metal

108 atoms
3 atom types

0 7.668573 xlo xhi
0 6.641179 ylo yhi
0 25.045091 zlo zhi
3.834287 0 0 xy xz yz

Masses

1 63.55
2 63.55
3 63.55

Atoms # atomic

4 3 2.547438 2.938381 0.03766213602934605 0 0 0
11 3 2.5547369999999994 1.4571509999999999 2.1111269298258373 0 0 0
3 3 6.379561 0.745804 0.04224186010212569 0 0 0
7 3 3.8412859999999975 5.163971 0.021031899446352902 0 0 0
8 3 6.405867999999996 5.154921999999999 0.039392211970211505 0 0 0
12 3 5.118194 1.495663 2.1122862144989876 0 0 0
14 3 3.8397439999999996 3.7025759999999996 2.0963381768355096 0 0 0
15 3 6.390964999999996 3.70335 2.109926301922146 0 0 0
17 3 5.107118999999996 5.902507 2.1045812595713804 0 0 0
20 3 6.388307999999997 6.626352999999999 4.179819972280275 0 0 0
26 3 5.118407999999996 4.418920999999999 4.179272114532483 0 0 0
9 3 8.931442999999994 5.179607999999998 0.026730656394736794 0 0 0
10 3 7.679184999999993 1.4623329999999999 2.1044037421515176 0 0 0
13 3 8.940428999999993 3.697404 2.1028644707944015 0 0 0
16 3 10.240528999999993 5.894791999999999 2.102759344419679 0 0 0
18 3 7.672439999999993 5.888487 2.10821651008055 0 0 0
19 3 11.489361 6.640675 4.181885999207009 0 0 0
22 3 8.943837999999992 2.2160959999999994 4.181557120166959 0 0 0
25 3 2.5755689999999993 4.411169999999999 4.180384749416103 0 0 0
28 3 1.294148 0.719091 6.253895089700073 0 0 0
29 3 3.815062999999998 0.7534759999999999 6.257456252279771 0 0 0
31 3 2.5710209999999982 2.93761 6.253997810209378 0 0 0
38 3 2.571223999999998 1.473121 8.34071760694463 0 0 0
41 3 3.8158669999999995 3.7056679999999997 8.330489085973388 0 0 0
23 3 3.8502249999999982 2.198714 4.176570932280575 0 0 0
24 3 6.3939679999999965 2.219804 4.183635689207635 0 0 0
30 3 6.409203 0.735229 6.257849651267812 0 0 0
32 3 5.119989 2.958309 6.2622881296761115 0 0 0
34 3 3.8407109999999998 5.154415 6.250921134997033 0 0 0
35 3 6.388677999999999 5.153685 6.258835471456804 0 0 0
45 3 7.657905999999994 5.890926999999999 8.326417072681137 0 0 0
21 3 8.932993 6.624137999999999 4.18507299150879 0 0 0
27 3 7.674748999999995 4.433951 4.1844885983532984 0 0 0
33 3 7.6783759999999965 2.949112999999999 6.26032851255385 0 0 0
36 3 8.934370999999999 5.147249 6.258779560300375 0 0 0
37 3 7.682448 1.463706 8.33262003810735 0 0 0
43 3 10.234098999999997 5.893128 8.330560096176773 0 0 0
46 3 0.015803 0.016654 10.411258084046615 0 0 0
47 3 2.567161 0.00589 10.411688407217683 0 0 0
49 3 1.2873729999999992 2.229196 10.40776641341245 0 0 0
52 3 2.572611999999998 4.432915 10.407083337458163 0 0 0
39 3 5.113895 1.484021 8.32765468363198 0 0 0
42 3 6.408216999999999 3.687981 8.338147844133225 0 0 0
44 3 5.099652 5.911609 8.333525216809454 0 0 0
50 3 3.850165999999997 2.2151719999999995 10.404440871800158 0 0 0
51 3 6.391361 2.213814 10.40374773701074 0 0 0
53 3 5.1079159999999995 4.4365619999999995 10.397726045599532 0 0 0
56 3 5.615831 2.942467 12.553684187736255 0 0 0
59 3 6.911080999999999 5.162362 12.55237871637956 0 0 0
40 3 8.959178 3.68481 8.333257240615461 0 0 0
48 3 8.942085 6.627825 10.398354704066072 0 0 0
54 3 7.684915999999999 4.435828 10.404604560293416 0 0 0
57 3 8.191122 2.964259 12.561782999493465 0 0 0
55 3 3.05912 2.960777 12.54724950022059 0 0 0
61 3 1.788742999999999 0.749169 12.564852881398824 0 0 0
71 3 3.0757079999999983 1.4930959999999995 14.627930203335255 0 0 0
76 3 3.062415 4.433814 16.715578172640132 0 0 0
80 3 3.074758 0.014603999999999999 16.696192857241943 0 0 0
58 3 4.364389 5.177026 12.5553112361765 0 0 0
62 3 4.330485999999997 0.7385329999999998 12.548216334561038 0 0 0
63 3 6.905814999999997 0.735625 12.563138490750841 0 0 0
65 3 4.330126999999999 3.698465 14.625413997430996 0 0 0
66 3 6.888135 3.704689999999999 14.628107329332153 0 0 0
68 3 5.624457999999999 5.891250999999999 14.629106286122962 0 0 0
72 3 5.609173999999995 1.492222 14.628083744123826 0 0 0
75 3 6.91003 2.215018 16.7025334520168 0 0 0
77 3 5.605869999999997 4.44424 16.70956171822068 0 0 0
60 3 9.473899999999993 5.156460999999999 12.557627431049966 0 0 0
64 3 9.46684 3.686742 14.632821993872023 0 0 0
67 3 10.72915 5.901708 14.630073815218442 0 0 0
69 3 8.183478999999998 5.904644 14.620714620777399 0 0 0
70 3 8.166554999999994 1.4912749999999997 14.634690289536714 0 0 0
78 3 8.176502999999993 4.410443 16.697541420053998 0 0 0
73 3 1.795613 2.222957 16.706611236634973 0 0 0
82 3 3.080156999999998 2.933041 18.786352231051087 0 0 0
88 3 1.8072189999999995 0.7521769999999998 18.777090024676934 0 0 0
98 3 3.0857449999999997 1.480692 20.86023040536146 0 0 0
74 3 4.359725999999997 2.230158 16.70340563133437 0 0 0
79 3 4.334377 6.624017 16.70524985792158 0 0 0
83 3 5.613378999999999 2.943343 18.78258433402803 0 0 0
85 3 4.343209 5.180191 18.793016262900302 0 0 0
86 3 6.893100999999997 5.164993999999999 18.771792261828658 0 0 0
89 3 4.349739999999996 0.738622 18.776896339528502 0 0 0
90 3 6.894567 0.7502779999999998 18.77480419550874 0 0 0
92 3 4.364545 3.7028759999999994 20.867166016129822 0 0 0
93 3 6.895416999999997 3.709447 20.84827026156814 0 0 0
81 3 9.439407 6.629953 16.69975463220525 0 0 0
84 3 8.168289 2.9613339999999995 18.776595842873892 0 0 0
87 3 9.452063 5.166551 18.779136808261313 0 0 0
94 3 10.718616 5.903717 20.85292268250987 0 0 0
96 3 8.195558 5.905654 20.859610635992667 0 0 0
97 3 8.16806 1.493673 20.84981153912561 0 0 0
1 3 1.295381 0.72343 0.025119684799541415 0 0 1
100 3 1.782699 2.204964 22.92676845577311 0 0 0
103 3 3.0487689999999983 4.435883999999999 22.922963947214736 0 0 0
2 3 3.8440149999999997 0.7354409999999998 0.043707442975267796 0 0 1
5 3 5.127526999999996 2.943229 0.027828523258285946 0 0 1
6 3 7.655494 2.9392519999999998 0.0366787483154693 0 0 1
95 3 5.636469999999999 5.922390999999998 20.85122549771073 0 0 0
99 3 5.6147319999999965 1.465147 20.8573368728958 0 0 0
101 3 4.325559999999999 2.203757 22.93565221085204 0 0 0
102 3 6.885821999999994 2.2195579999999997 22.92219777582644 0 0 0
104 3 5.642177 4.443903999999999 22.92947778044191 0 0 0
106 3 4.353596999999999 6.632713999999999 22.915847488583978 0 0 0
107 3 6.904096 6.640825 22.934755949676006 0 0 0
108 3 5.630285 0.011479999999999999 22.93404829119446 0 0 0
91 3 9.448627999999992 3.6713559999999994 20.8508046793637 0 0 0
105 3 8.166364999999999 4.410676 22.927744234571374 0 0 0

Velocities

4 0 0 0
11 0 0 0
3 0 0 0
7 0 0 0
8 0 0 0
12 0 0 0
14 0 0 0
15 0 0 0
17 0 0 0
20 0 0 0
26 0 0 0
9 0 0 0
10 0 0 0
13 0 0 0
16 0 0 0
18 0 0 0
19 0 0 0
22 0 0 0
25 0 0 0
28 0 0 0
29 0 0 0
31 0 0 0
38 0 0 0
41 0 0 0
23 0 0 0
24 0 0 0
30 0 0 0
32 0 0 0
34 0 0 0
35 0 0 0
45 0 0 0
21 0 0 0
27 0 0 0
33 0 0 0
36 0 0 0
37 0 0 0
43 0 0 0
46 0 0 0
47 0 0 0
49 0 0 0
52 0 0 0
39 0 0 0
42 0 0 0
44 0 0 0
50 0 0 0
51 0 0 0
53 0 0 0
56 0 0 0
59 0 0 0
40 0 0 0
48 0 0 0
54 0 0 0
57 0 0 0
55 0 0 0
61 0 0 0
71 0 0 0
76 0 0 0
80 0 0 0
58 0 0 0
62 0 0 0
63 0 0 0
65 0 0 0
66 0 0 0
68 0 0 0
72 0 0 0
75 0 0 0
77 0 0 0
60 0 0 0
64 0 0 0
67 0 0 0
69 0 0 0
70 0 0 0
78 0 0 0
73 0 0 0
82 0 0 0
88 0 0 0
98 0 0 0
74 0 0 0
79 0 0 0
83 0 0 0
85 0 0 0
86 0 0 0
89 0 0 0
90 0 0 0
92 0 0 0
93 0 0 0
81 0 0 0
84 0 0 0
87 0 0 0
94 0 0 0
96 0 0 0
97 0 0 0
1 0 0 0
100 0 0 0
103 0 0 0
2 0 0 0
5 0 0 0
6 0 0 0
95 0 0 0
99 0 0 0
101 0 0 0
102 0 0 0
104 0 0 0
106 0 0 0
107 0 0 0
108 0 0 0
91 0 0 0
105 0 0 0
