LAMMPS data file via write_data, version 22 Jul 2025, timestep = 17, units = metal

108 atoms
3 atom types

0 7.668573 xlo xhi
0 6.641179 ylo yhi
0 25.045091 zlo zhi
3.834287 0 0 xy xz yz

Masses

1 63.55
2 63.55
3 63.55

Atoms # atomic

4 3 2.538136999999998 2.943866 0.11197661581465139 0 0 0
11 3 2.541569 1.4627 2.1724486543593575 0 0 0
2 3 3.8515539999999966 0.731618 0.09625142365314206 0 0 0
3 3 6.405612 0.75529 0.10485592835387957 0 0 0
8 3 6.392415 5.145971 0.09444394512880744 0 0 0
10 3 7.651859999999997 1.4859079999999996 2.1711253807207864 0 0 0
12 3 5.101840999999999 1.4838469999999995 2.1597596223359123 0 0 0
14 3 3.8515099999999998 3.689291 2.160108282880156 0 0 0
15 3 6.371305 3.690445 2.1701125743080456 0 0 0
17 3 5.115701999999996 5.889232999999999 2.1539429367251546 0 0 0
18 3 7.649299999999998 5.91445 2.149784766837877 0 0 0
20 3 6.387238 6.62229 4.223915599685259 0 0 0
9 3 8.954871 5.148478 0.10855625220517619 0 0 0
13 3 8.960072 3.7001729999999995 2.164790141274109 0 0 0
16 3 10.241904999999997 5.887947 2.161421967477918 0 0 0
19 3 11.487084999999997 6.637698999999999 4.224504320055681 0 0 0
22 3 8.947235 2.22908 4.226187518201161 0 0 0
28 3 1.276328 0.7396989999999998 6.2849298383828325 0 0 0
29 3 3.8234699999999977 0.730458 6.286355719870277 0 0 0
31 3 2.543679 2.964107 6.295417568706103 0 0 0
34 3 3.8332309999999996 5.162910999999999 6.289273690995722 0 0 0
38 3 2.557196999999998 1.493384 8.354476921932285 0 0 0
21 3 5.100007 0.000456 4.217595229701434 0 0 0
23 3 3.842875 2.232975 4.230880501765237 0 0 0
24 3 6.381699 2.21149 4.232966733440323 0 0 0
26 3 5.113628999999997 4.433158 4.232160437823612 0 0 0
27 3 7.668424 4.446324 4.222258817574951 0 0 0
30 3 6.392737 0.750543 6.29323391566834 0 0 0
32 3 5.102928999999998 2.9576479999999994 6.30162176335397 0 0 0
35 3 6.381328 5.174892 6.290751914620307 0 0 0
45 3 7.667211999999997 5.889683 8.350369470506743 0 0 0
25 3 10.21431 4.410991 4.228424904995325 0 0 0
33 3 7.672718999999994 2.950481 6.288990429907953 0 0 0
36 3 8.941873999999993 5.171635 6.290546087712329 0 0 0
40 3 8.933391999999998 3.6890949999999996 8.361601892694729 0 0 0
43 3 10.237446999999992 5.896246 8.353851078917156 0 0 0
41 3 3.8253359999999983 3.6867429999999994 8.357103586096022 0 0 0
49 3 1.291921 2.222651 10.4256173539608 0 0 0
50 3 3.824171999999998 2.231019 10.426587365461154 0 0 0
55 3 3.0501599999999995 1.1806829999999997 12.53185498104398 0 0 0
37 3 7.661989 1.472249 8.35903533209857 0 0 0
39 3 5.096103999999999 1.4584859999999995 8.36080512636478 0 0 0
42 3 6.391919 3.7026309999999993 8.351168601136749 0 0 0
44 3 5.116776 5.916057 8.35254796607586 0 0 0
46 3 3.849556999999997 6.640118 10.423568064929372 0 0 0
47 3 6.390157 6.625757999999999 10.406760761192157 0 0 0
51 3 6.398666 2.230577 10.411336897086029 0 0 0
53 3 5.100746999999997 4.41091 10.417066555818955 0 0 0
54 3 7.653748 4.4462 10.426485564161572 0 0 0
56 3 5.620417999999996 1.194481 12.530245666582593 0 0 0
58 3 4.330045 3.4135579999999996 12.542839541578125 0 0 0
59 3 6.903555 3.3958019999999998 12.534944259600369 0 0 0
48 3 8.941431999999995 6.633470999999998 10.419540092315989 0 0 0
52 3 10.21304 4.438538 10.41683199430075 0 0 0
57 3 8.176727999999994 1.189161 12.541978821942399 0 0 0
62 3 8.170873999999992 5.624952999999999 12.5456927472626 0 0 0
64 3 1.7789069999999998 1.9345409999999998 14.6052139836205 0 0 0
67 3 3.081913999999998 4.125798 14.613543538991939 0 0 0
61 3 5.627736999999998 5.627126 12.526405333894655 0 0 0
65 3 4.348187999999999 1.9298419999999998 14.596910142025068 0 0 0
66 3 6.898928999999994 1.9212939999999998 14.599390382214954 0 0 0
68 3 5.640739 4.148917 14.590821493007438 0 0 0
70 3 4.338129999999996 6.328258999999999 14.601392143885596 0 0 0
71 3 6.892071 6.359741 14.596719291214935 0 0 0
74 3 4.3382669999999965 0.4339859999999999 16.66039319418842 0 0 0
77 3 5.636658999999996 2.673077999999999 16.662805094306194 0 0 0
79 3 4.36414 4.860576 16.66798584404859 0 0 0
80 3 6.895012999999996 4.8838 16.666469217344034 0 0 0
60 3 9.458735999999993 3.410652 12.542111722376985 0 0 0
63 3 10.752452999999996 5.595339999999999 12.534597918661872 0 0 0
69 3 8.176083 4.113343 14.606367216775375 0 0 0
72 3 9.468273 6.326266 14.592840721742988 0 0 0
78 3 8.166296999999993 2.657316999999999 16.677561625438997 0 0 0
81 3 9.456257999999993 4.885293 16.660435614936336 0 0 0
73 3 1.804646999999999 0.436464 16.660638257434595 0 0 0
76 3 3.074574 2.641566 16.66504633093123 0 0 0
82 3 3.065824999999999 1.188728 18.736958132709276 0 0 0
91 3 1.789055 1.910147 20.79867702751776 0 0 0
94 3 3.058358999999998 4.112489 20.796969720556714 0 0 0
75 3 6.911511 0.451953 16.661892349252387 0 0 0
83 3 5.639721999999996 1.174179 18.727289571249393 0 0 0
85 3 4.334232 3.3940189999999997 18.728906832985082 0 0 0
86 3 6.890954 3.4080999999999997 18.731462328622808 0 0 0
88 3 5.604975999999999 5.622911999999999 18.726380519086394 0 0 0
93 3 6.917303 1.9365979999999998 20.79156531675919 0 0 0
95 3 5.625104 4.141826 20.78814251665692 0 0 0
97 3 4.350828 6.327185999999999 20.793775552725883 0 0 0
98 3 6.884008999999999 6.340749 20.79255670658294 0 0 0
84 3 8.188728999999993 1.171103 18.732194834367967 0 0 0
87 3 9.471877999999997 3.402025 18.722934402695184 0 0 0
89 3 8.183788 5.616889 18.731225564981845 0 0 0
90 3 10.717819 5.59759 18.72776904039193 0 0 0
96 3 8.191811999999999 4.121266999999999 20.791720141264012 0 0 0
99 3 9.451728 6.330568 20.79085706824119 0 0 0
1 3 1.287617 0.751629 0.11321506024553833 0 0 1
7 3 3.818083999999998 5.157625 0.09515039767342127 0 0 1
100 3 1.775105 0.444295 22.85820295763239 0 0 0
103 3 3.078069999999998 2.667906 22.862932964156716 0 0 0
5 3 5.108988 2.954609 0.09645650464980489 0 0 1
6 3 7.649894999999999 2.9573759999999996 0.11240019224757743 0 0 1
92 3 4.362131 1.937087 20.79628929786478 0 0 0
101 3 4.350101999999995 0.43545599999999995 22.840675423166733 0 0 0
102 3 6.882689999999995 0.453937 22.84145126574841 0 0 0
104 3 5.643148999999997 2.676122 22.85095067797967 0 0 0
106 3 4.337921999999999 4.875063999999998 22.847477625387018 0 0 0
107 3 6.9085569999999965 4.862558 22.844269381084118 0 0 0
105 3 8.199101999999993 2.639439 22.86902914609191 0 0 0
108 3 9.448283999999992 4.866167 22.853988284788663 0 0 0

Velocities

4 0 0 0
11 0 0 0
2 0 0 0
3 0 0 0
8 0 0 0
10 0 0 0
12 0 0 0
14 0 0 0
15 0 0 0
17 0 0 0
18 0 0 0
20 0 0 0
9 0 0 0
13 0 0 0
16 0 0 0
19 0 0 0
22 0 0 0
28 0 0 0
29 0 0 0
31 0 0 0
34 0 0 0
38 0 0 0
21 0 0 0
23 0 0 0
24 0 0 0
26 0 0 0
27 0 0 0
30 0 0 0
32 0 0 0
35 0 0 0
45 0 0 0
25 0 0 0
33 0 0 0
36 0 0 0
40 0 0 0
43 0 0 0
41 0 0 0
49 0 0 0
50 0 0 0
55 0 0 0
37 0 0 0
39 0 0 0
42 0 0 0
44 0 0 0
46 0 0 0
47 0 0 0
51 0 0 0
53 0 0 0
54 0 0 0
56 0 0 0
58 0 0 0
59 0 0 0
48 0 0 0
52 0 0 0
57 0 0 0
62 0 0 0
64 0 0 0
67 0 0 0
61 0 0 0
65 0 0 0
66 0 0 0
68 0 0 0
70 0 0 0
71 0 0 0
74 0 0 0
77 0 0 0
79 0 0 0
80 0 0 0
60 0 0 0
63 0 0 0
69 0 0 0
72 0 0 0
78 0 0 0
81 0 0 0
73 0 0 0
76 0 0 0
82 0 0 0
91 0 0 0
94 0 0 0
75 0 0 0
83 0 0 0
85 0 0 0
86 0 0 0
88 0 0 0
93 0 0 0
95 0 0 0
97 0 0 0
98 0 0 0
84 0 0 0
87 0 0 0
89 0 0 0
90 0 0 0
96 0 0 0
99 0 0 0
1 0 0 0
7 0 0 0
100 0 0 0
103 0 0 0
5 0 0 0
6 0 0 0
92 0 0 0
101 0 0 0
102 0 0 0
104 0 0 0
106 0 0 0
107 0 0 0
105 0 0 0
108 0 0 0
