LAMMPS data file via write_data, version 22 Jul 2025, timestep = 14, units = metal

108 atoms
3 atom types

0 7.668573 xlo xhi
0 6.641179 ylo yhi
0 25.045091 zlo zhi
3.834287 0 0 xy xz yz

Masses

1 63.55
2 63.55
3 63.55

Atoms # atomic

2 3 3.823605999999998 0.757865 0.03306676588187574 0 0 0
4 3 2.5452209999999997 2.933181 0.025996956316757445 0 0 0
7 3 3.8158379999999985 5.179803 0.025686525693447176 0 0 0
11 3 2.539028 1.492512 2.1061246967428833 0 0 0
14 3 3.829284 3.70366 2.0939940617133552 0 0 0
10 3 7.662392 1.4563909999999998 2.1053588444339923 0 0 0
12 3 5.113150999999997 1.4683039999999996 2.104881685285925 0 0 0
15 3 6.410302999999997 3.6899689999999996 2.1067067776541415 0 0 0
17 3 5.1064589999999965 5.901172999999999 2.1018024666012143 0 0 0
18 3 7.653784999999996 5.901354999999998 2.0974526517572385 0 0 0
19 3 3.839858 6.640932 4.182718719895289 0 0 0
21 3 5.106152999999999 0.016734 4.1764951101582355 0 0 0
26 3 5.100073999999999 4.431375 4.175155800845127 0 0 0
27 3 7.649203999999999 4.435344 4.1853702098527625 0 0 0
13 3 8.951495999999999 3.690949 2.1137111124607495 0 0 0
16 3 10.240943999999994 5.892623999999999 2.1098414837419783 0 0 0
22 3 1.287775 2.221563 4.1822144059837205 0 0 0
23 3 3.8159669999999997 2.208348 4.175151885213931 0 0 0
25 3 2.564973999999998 4.438319 4.184924992133221 0 0 0
28 3 1.278753999999999 0.73389 6.254613750224099 0 0 0
31 3 2.545873 2.960671 6.262216641917489 0 0 0
38 3 2.567181 1.466338 8.33236180433991 0 0 0
20 3 6.407476999999998 6.623036 4.173766823193611 0 0 0
24 3 6.394976999999996 2.225461 4.183311341324427 0 0 0
29 3 3.836169 0.739882 6.250821398802689 0 0 0
30 3 6.398767999999996 0.7211449999999998 6.255565836270417 0 0 0
32 3 5.108513 2.964935 6.243302261189966 0 0 0
34 3 3.8440149999999997 5.175629999999999 6.264854044844222 0 0 0
35 3 6.392854999999996 5.184787 6.259760986076242 0 0 0
41 3 3.8441330000000002 3.693136 8.332873313185795 0 0 0
44 3 5.129538999999997 5.885173 8.34065942206211 0 0 0
33 3 7.6865879999999995 2.953949 6.255721665202756 0 0 0
36 3 8.961006 5.15122 6.252670059536357 0 0 0
40 3 8.957514 3.694411 8.337334489979682 0 0 0
45 3 7.676795 5.908359 8.332132255976 0 0 0
49 3 1.277955 2.202723 10.403014792172739 0 0 0
52 3 2.5540629999999984 4.422114999999999 10.406880725100493 0 0 0
55 3 3.5882989999999984 1.193926 12.557494489525725 0 0 0
60 3 2.298659 3.379161 12.550512654781807 0 0 0
63 3 3.594622999999998 5.610608999999999 12.55375697091572 0 0 0
39 3 5.102087999999997 1.479607 8.317788139427202 0 0 0
42 3 6.3757269999999995 3.674125 8.322179948292804 0 0 0
46 3 7.661584999999996 0.007124 10.398602755997182 0 0 0
47 3 6.386406 6.638807 10.414016444846197 0 0 0
48 3 5.108933999999999 0.012172 10.40377739043282 0 0 0
50 3 3.8520209999999997 2.208157 10.401254741109556 0 0 0
51 3 6.389214999999998 2.207806 10.395071073885662 0 0 0
53 3 5.109661999999997 4.425303 10.412533469222438 0 0 0
54 3 7.658935999999999 4.4102749999999995 10.392764637646005 0 0 0
61 3 6.1204399999999985 5.598418999999999 12.561411318841863 0 0 0
37 3 7.684679999999999 1.492899 8.325489968021524 0 0 0
43 3 10.217777 5.910668 8.336063708963604 0 0 0
57 3 1.0414599999999998 1.171199 12.555693739137624 0 0 0
64 3 2.3028569999999995 1.9331029999999998 14.63189619019076 0 0 0
67 3 3.5699889999999996 4.131456 14.6255334892558 0 0 0
73 3 2.294240999999998 0.433387 16.693724892151316 0 0 0
56 3 6.129053 1.180822 12.551164438869185 0 0 0
58 3 4.870554999999998 3.3901779999999997 12.56501938571329 0 0 0
59 3 7.394139 3.394036 12.548932933058584 0 0 0
65 3 4.85516 1.9036579999999996 14.631811884566478 0 0 0
66 3 7.426970999999998 1.9293319999999998 14.625069370488665 0 0 0
68 3 6.143683 4.130431 14.634586119339343 0 0 0
70 3 4.862932 6.354765999999999 14.627739900233326 0 0 0
71 3 7.423553999999997 6.349861 14.624108062221815 0 0 0
74 3 4.875092 0.45008899999999996 16.705798992980466 0 0 0
62 3 8.689107999999992 5.602761 12.547349470363965 0 0 0
69 3 8.687431 4.123309 14.621387068248502 0 0 0
72 3 9.964655999999998 6.363102999999998 14.619713187791465 0 0 0
81 3 9.979127 4.859543 16.701675428125327 0 0 0
76 3 3.5780889999999994 2.653391 16.70663572788148 0 0 0
82 3 3.5671369999999962 1.173537 18.77751943813699 0 0 0
84 3 1.030501 1.164254 18.77322365123817 0 0 0
87 3 2.2877319999999997 3.3745369999999997 18.783122750403354 0 0 0
90 3 3.56058 5.614011999999999 18.780425752415503 0 0 0
91 3 2.3049029999999995 1.90377 20.85761305436682 0 0 0
94 3 3.590215999999998 4.145068 20.856464848615 0 0 0
75 3 7.401704999999996 0.431896 16.697207554846607 0 0 0
77 3 6.116485 2.669024 16.706294280223553 0 0 0
79 3 4.867023999999999 4.8843369999999995 16.70351456300932 0 0 0
80 3 7.427813999999996 4.871406999999999 16.70009877199043 0 0 0
83 3 6.138352 1.180809 18.77467247031412 0 0 0
85 3 4.850248999999999 3.4128019999999997 18.77616800649462 0 0 0
86 3 7.427403 3.39974 18.783544150656837 0 0 0
88 3 6.150615999999999 5.624944 18.77708319820435 0 0 0
98 3 7.418158999999999 6.328756999999999 20.859783692171142 0 0 0
78 3 8.683883 2.64819 16.705483604659122 0 0 0
89 3 8.677343 5.618822999999998 18.77440317380377 0 0 0
99 3 9.956983999999999 6.350128999999998 20.85303001447307 0 0 0
1 3 1.2826449999999994 0.7205209999999999 0.032453689962479826 0 0 1
100 3 2.301308 0.436986 22.926775776765037 0 0 0
103 3 3.573258 2.644145 22.92111655754284 0 0 0
3 3 6.402851999999997 0.729482 0.033196050409725376 0 0 1
5 3 5.112639 2.935179 0.03036376058861019 0 0 1
6 3 7.654581999999997 2.969494 0.0362687930626439 0 0 1
8 3 6.399841 5.162972 0.031879790021645725 0 0 1
92 3 4.860147999999999 1.9210949999999998 20.847829517534805 0 0 0
93 3 7.410095999999999 1.898571 20.844449573090227 0 0 0
95 3 6.117236999999999 4.131634 20.850247817954187 0 0 0
97 3 4.864841 6.340707999999999 20.853374587723707 0 0 0
101 3 4.868242 0.45686599999999994 22.933204527530446 0 0 0
102 3 7.417306999999993 0.44978599999999996 22.92096305221267 0 0 0
104 3 6.153856999999997 2.659164 22.922831263726117 0 0 0
106 3 4.854276 4.866562 22.934235129515635 0 0 0
107 3 7.403510999999997 4.879487999999999 22.92075059725466 0 0 0
9 3 8.946081 5.14634 0.038140840654783216 0 0 1
96 3 8.708797999999998 4.137588999999999 20.8546191720876 0 0 0
105 3 8.674578 2.671612 22.92317229644844 0 0 0
108 3 9.966949 4.888108 22.926283473598392 0 0 0

Velocities

2 0 0 0
4 0 0 0
7 0 0 0
11 0 0 0
14 0 0 0
10 0 0 0
12 0 0 0
15 0 0 0
17 0 0 0
18 0 0 0
19 0 0 0
21 0 0 0
26 0 0 0
27 0 0 0
13 0 0 0
16 0 0 0
22 0 0 0
23 0 0 0
25 0 0 0
28 0 0 0
31 0 0 0
38 0 0 0
20 0 0 0
24 0 0 0
29 0 0 0
30 0 0 0
32 0 0 0
34 0 0 0
35 0 0 0
41 0 0 0
44 0 0 0
33 0 0 0
36 0 0 0
40 0 0 0
45 0 0 0
49 0 0 0
52 0 0 0
55 0 0 0
60 0 0 0
63 0 0 0
39 0 0 0
42 0 0 0
46 0 0 0
47 0 0 0
48 0 0 0
50 0 0 0
51 0 0 0
53 0 0 0
54 0 0 0
61 0 0 0
37 0 0 0
43 0 0 0
57 0 0 0
64 0 0 0
67 0 0 0
73 0 0 0
56 0 0 0
58 0 0 0
59 0 0 0
65 0 0 0
66 0 0 0
68 0 0 0
70 0 0 0
71 0 0 0
74 0 0 0
62 0 0 0
69 0 0 0
72 0 0 0
81 0 0 0
76 0 0 0
82 0 0 0
84 0 0 0
87 0 0 0
90 0 0 0
91 0 0 0
94 0 0 0
75 0 0 0
77 0 0 0
79 0 0 0
80 0 0 0
83 0 0 0
85 0 0 0
86 0 0 0
88 0 0 0
98 0 0 0
78 0 0 0
89 0 0 0
99 0 0 0
1 0 0 0
100 0 0 0
103 0 0 0
3 0 0 0
5 0 0 0
6 0 0 0
8 0 0 0
92 0 0 0
93 0 0 0
95 0 0 0
97 0 0 0
101 0 0 0
102 0 0 0
104 0 0 0
106 0 0 0
107 0 0 0
9 0 0 0
96 0 0 0
105 0 0 0
108 0 0 0
