LAMMPS data file via write_data, version 22 Jul 2025, timestep = 17, units = metal

108 atoms
3 atom types

0 7.668573 xlo xhi
0 6.641179 ylo yhi
0 25.045091 zlo zhi
3.834287 0 0 xy xz yz

Masses

1 63.55
2 63.55
3 63.55

Atoms # atomic

2 3 3.8217919999999976 0.7399829999999998 0.14444258364721352 0 0 0
11 3 2.5427479999999996 1.461121 2.1986770155182747 0 0 0
23 3 3.834168 2.194663 4.260546670631159 0 0 0
7 3 3.840980999999997 5.156642 0.14529642842362123 0 0 0
10 3 7.656162999999995 1.471002 2.1757354425007494 0 0 0
12 3 5.121840999999996 1.489671 2.194872830372079 0 0 0
14 3 3.836939 3.6731729999999994 2.1976390805276096 0 0 0
15 3 6.398199 3.671378 2.1946509436836013 0 0 0
17 3 5.123292 5.91773 2.1896389122224984 0 0 0
18 3 7.6638819999999965 5.900998 2.1947151788273698 0 0 0
20 3 6.388062999999997 6.621222999999998 4.256321298135801 0 0 0
6 3 7.681918 2.970494 0.13322748704786117 0 0 0
9 3 8.931658 5.16135 0.13777042517975435 0 0 0
13 3 8.934708 3.688105 2.1948904425096254 0 0 0
16 3 10.243602999999995 5.906965 2.1851773487664774 0 0 0
21 3 8.962837 6.624546999999999 4.245711515119541 0 0 0
27 3 7.678131999999996 4.439477 4.260680646338929 0 0 0
28 3 1.2675649999999992 0.748566 6.312757581705713 0 0 0
29 3 3.8309119999999997 0.7272489999999998 6.312123563260783 0 0 0
31 3 2.5370739999999983 2.9621309999999994 6.307595040284516 0 0 0
24 3 6.384878999999996 2.2106 4.2532791289273515 0 0 0
26 3 5.11946 4.416267 4.247174735145846 0 0 0
30 3 6.379857 0.747328 6.3096770594681315 0 0 0
32 3 5.120167 2.962267 6.317571397662949 0 0 0
34 3 3.8362609999999986 5.15421 6.303777329395148 0 0 0
35 3 6.404344999999997 5.183719999999999 6.314488242178698 0 0 0
41 3 3.840445 3.708521 8.377410140884281 0 0 0
44 3 5.113797 5.896222999999999 8.366065848537588 0 0 0
45 3 7.650395999999996 5.895689 8.382878528715693 0 0 0
19 3 7.6728 0.015473999999999998 4.251450102511306 0 0 0
22 3 8.929947999999992 2.20365 4.242416008510333 0 0 0
25 3 10.216320999999994 4.440716 4.244035317228074 0 0 0
33 3 7.673295999999999 2.932797 6.308943214444589 0 0 0
36 3 8.959729 5.168697 6.319859036283248 0 0 0
37 3 7.673568999999999 1.474071 8.373614335245447 0 0 0
38 3 2.5696509999999995 1.4754289999999999 8.363057421144596 0 0 0
46 3 0.0029509999999999983 0.004135999999999999 10.431999075416659 0 0 0
49 3 1.282045 2.198695 10.426677296356093 0 0 0
50 3 3.817788 2.1944 10.42133019415859 0 0 0
39 3 5.123179 1.472607 8.374008158301073 0 0 0
42 3 6.399108 3.6867579999999998 8.37243727829971 0 0 0
47 3 6.387985999999998 6.629631999999999 10.4338262239601 0 0 0
48 3 5.126731 0.005664999999999998 10.439813124842418 0 0 0
51 3 6.400296 2.221793 10.4318362506735 0 0 0
53 3 5.132120999999998 4.447355999999999 10.43488026686795 0 0 0
59 3 6.658977 3.821830999999999 12.524798504671283 0 0 0
61 3 5.372855999999999 6.040600999999998 12.534715023589841 0 0 0
40 3 8.934743999999993 3.6907659999999995 8.374038328932702 0 0 0
43 3 10.211580999999994 5.9147479999999995 8.368228534176492 0 0 0
52 3 10.222513 4.446873 10.423566126689723 0 0 0
54 3 7.687774999999993 4.429136 10.436987263398315 0 0 0
55 3 2.829241999999999 1.6338959999999996 12.535897557501734 0 0 0
64 3 1.527889 2.3550179999999994 14.583350246480776 0 0 0
67 3 2.7989309999999996 4.558883 14.581370521277371 0 0 0
70 3 0.243157 0.14143 14.585771310700943 0 0 0
71 3 2.810282 0.137617 14.591006936214121 0 0 0
73 3 1.5480309999999995 0.9002349999999999 16.645296962040515 0 0 0
76 3 2.8032229999999982 3.109314 16.64942994103596 0 0 0
56 3 5.354345999999997 1.6376069999999998 12.523519718529379 0 0 0
58 3 4.083974 3.849805 12.521600612087356 0 0 0
65 3 4.091663 2.34805 14.595706237960513 0 0 0
66 3 6.647422999999995 2.3663599999999994 14.584174488634831 0 0 0
68 3 5.367937999999999 4.566522 14.58435183960936 0 0 0
72 3 5.387264999999997 0.157148 14.58401626934606 0 0 0
75 3 6.652492 0.903049 16.64626471288169 0 0 0
80 3 6.655235999999999 5.319906 16.65541381692693 0 0 0
57 3 7.928356999999995 1.638208 12.528757881675196 0 0 0
60 3 9.201982 3.840181 12.519529941645615 0 0 0
62 3 7.909099999999993 6.055922999999999 12.532373129974104 0 0 0
63 3 10.479335 6.034273 12.525482174226601 0 0 0
69 3 7.920854999999994 4.557491999999999 14.585554292948242 0 0 0
78 3 7.930042999999996 3.0959509999999995 16.647686785325494 0 0 0
81 3 9.199828 5.315399 16.640641881458507 0 0 0
82 3 2.805738999999999 1.6265929999999997 18.71277185540452 0 0 0
94 3 2.816410999999998 4.593033 20.75943686294233 0 0 0
98 3 2.8311569999999984 0.146193 20.75573664433483 0 0 0
74 3 4.083472 0.8938599999999999 16.652274513061577 0 0 0
77 3 5.385629 3.116545 16.64401016154697 0 0 0
79 3 4.0732479999999995 5.301701 16.638465729666862 0 0 0
83 3 5.385399999999996 1.611957 18.702015916116224 0 0 0
85 3 4.106392 3.8266079999999993 18.70367630364791 0 0 0
86 3 6.631715999999999 3.818674 18.717898607870467 0 0 0
88 3 5.350648999999999 6.063065 18.70294836646716 0 0 0
92 3 4.099364 2.364869 20.766256244418045 0 0 0
93 3 6.645194999999997 2.357205 20.77431600084914 0 0 0
84 3 7.926203999999997 1.636216 18.71463020576992 0 0 0
87 3 9.185790999999998 3.8253669999999995 18.706441285515872 0 0 0
89 3 7.942666 6.039518 18.705212908973397 0 0 0
90 3 10.494435 6.053376 18.699287956667085 0 0 0
96 3 7.937469999999999 4.582839 20.768278738315075 0 0 0
1 3 1.286394999999999 0.747594 0.12407006704391259 0 0 1
4 3 2.562581 2.9524999999999992 0.14155507482296867 0 0 1
91 3 1.5332729999999992 2.3767409999999995 20.770717280877243 0 0 0
97 3 0.262035 0.130466 20.768508956019627 0 0 0
100 3 1.5506089999999997 0.8766489999999999 22.808362896001665 0 0 0
103 3 2.820698 3.107804 22.821665504312225 0 0 0
3 3 6.378156999999996 0.723633 0.1280508271139975 0 0 1
5 3 5.129808 2.935833 0.13963545923570214 0 0 1
8 3 6.395932999999998 5.164391999999999 0.13697019536418226 0 0 1
95 3 5.350820999999996 4.56256 20.77727075685235 0 0 0
99 3 5.371924 0.16476 20.761781444954135 0 0 0
101 3 4.085372 0.870894 22.826112073946156 0 0 0
102 3 6.630999999999997 0.878673 22.81743682089592 0 0 0
104 3 5.368223999999996 3.079248 22.82778101564595 0 0 0
106 3 4.079139 5.327999 22.83264892549984 0 0 0
107 3 6.659416999999997 5.311194 22.81891861785368 0 0 0
105 3 7.939538999999999 3.093317 22.8215958642831 0 0 0
108 3 9.206375999999999 5.324740999999999 22.822893727907573 0 0 0

Velocities

2 0 0 0
11 0 0 0
23 0 0 0
7 0 0 0
10 0 0 0
12 0 0 0
14 0 0 0
15 0 0 0
17 0 0 0
18 0 0 0
20 0 0 0
6 0 0 0
9 0 0 0
13 0 0 0
16 0 0 0
21 0 0 0
27 0 0 0
28 0 0 0
29 0 0 0
31 0 0 0
24 0 0 0
26 0 0 0
30 0 0 0
32 0 0 0
34 0 0 0
35 0 0 0
41 0 0 0
44 0 0 0
45 0 0 0
19 0 0 0
22 0 0 0
25 0 0 0
33 0 0 0
36 0 0 0
37 0 0 0
38 0 0 0
46 0 0 0
49 0 0 0
50 0 0 0
39 0 0 0
42 0 0 0
47 0 0 0
48 0 0 0
51 0 0 0
53 0 0 0
59 0 0 0
61 0 0 0
40 0 0 0
43 0 0 0
52 0 0 0
54 0 0 0
55 0 0 0
64 0 0 0
67 0 0 0
70 0 0 0
71 0 0 0
73 0 0 0
76 0 0 0
56 0 0 0
58 0 0 0
65 0 0 0
66 0 0 0
68 0 0 0
72 0 0 0
75 0 0 0
80 0 0 0
57 0 0 0
60 0 0 0
62 0 0 0
63 0 0 0
69 0 0 0
78 0 0 0
81 0 0 0
82 0 0 0
94 0 0 0
98 0 0 0
74 0 0 0
77 0 0 0
79 0 0 0
83 0 0 0
85 0 0 0
86 0 0 0
88 0 0 0
92 0 0 0
93 0 0 0
84 0 0 0
87 0 0 0
89 0 0 0
90 0 0 0
96 0 0 0
1 0 0 0
4 0 0 0
91 0 0 0
97 0 0 0
100 0 0 0
103 0 0 0
3 0 0 0
5 0 0 0
8 0 0 0
95 0 0 0
99 0 0 0
101 0 0 0
102 0 0 0
104 0 0 0
106 0 0 0
107 0 0 0
105 0 0 0
108 0 0 0
