 # Fcc Cu oriented X=[11-2], Y=[111], Z=[-110].
 CRYSTAL
 PRIMVEC
      4.42745271        0.00000000        0.00000000
      0.00000000       75.13636404        0.00000000
      0.00000000        0.00000000        2.55619101
 CONVVEC
      4.42745271        0.00000000        0.00000000
      0.00000000       75.13636404        0.00000000
      0.00000000        0.00000000        2.55619101
 PRIMCOORD
       72 1
29        0.00000000        0.00000000        0.00000000
29        2.95163514        4.17424245        0.00000000
29        1.47581757        2.08712122        0.00000000
29        2.21372636        0.00000000        1.27809551
29        3.68954393        2.08712122        1.27809551
29        0.73790879        4.17424245        1.27809551
29        0.00000000        6.26136367        0.00000000
29        2.95163514       10.43560612        0.00000000
29        1.47581757        8.34848489        0.00000000
29        2.21372636        6.26136367        1.27809551
29        3.68954393        8.34848489        1.27809551
29        0.73790879       10.43560612        1.27809551
29        0.00000000       12.52272734        0.00000000
29        2.95163514       16.69696979        0.00000000
29        1.47581757       14.60984856        0.00000000
29        2.21372636       12.52272734        1.27809551
29        3.68954393       14.60984856        1.27809551
29        0.73790879       16.69696979        1.27809551
29        0.00000000       18.78409101        0.00000000
29        2.95163514       20.87121223        0.00000000
29        1.47581757       22.95833346        0.00000000
29        2.21372636       18.78409101        1.27809551
29        3.68954393       22.95833346        1.27809551
29        0.73790879       20.87121223        1.27809551
29        0.00000000       25.04545468        0.00000000
29        2.95163514       27.13257590        0.00000000
29        1.47581757       29.21969713        0.00000000
29        2.21372636       25.04545468        1.27809551
29        3.68954393       29.21969713        1.27809551
29        0.73790879       27.13257590        1.27809551
29        0.00000000       31.30681835        0.00000000
29        2.95163514       33.39393957        0.00000000
29        1.47581757       35.48106080        0.00000000
29        2.21372636       31.30681835        1.27809551
29        3.68954393       35.48106080        1.27809551
29        0.73790879       33.39393957        1.27809551
29        0.00000000       37.56818202        0.00000000
29        2.95163514       41.74242447        0.00000000
29        1.47581757       39.65530324        0.00000000
29        2.21372636       37.56818202        1.27809551
29        3.68954393       39.65530324        1.27809551
29        0.73790879       41.74242447        1.27809551
29        0.00000000       43.82954569        0.00000000
29        2.95163514       48.00378814        0.00000000
29        1.47581757       45.91666691        0.00000000
29        2.21372636       43.82954569        1.27809551
29        3.68954393       45.91666691        1.27809551
29        0.73790879       48.00378814        1.27809551
29        0.00000000       50.09090936        0.00000000
29        2.95163514       54.26515181        0.00000000
29        1.47581757       52.17803058        0.00000000
29        2.21372636       50.09090936        1.27809551
29        3.68954393       52.17803058        1.27809551
29        0.73790879       54.26515181        1.27809551
29        0.00000000       56.35227303        0.00000000
29        2.95163514       58.43939425        0.00000000
29        1.47581757       60.52651548        0.00000000
29        2.21372636       56.35227303        1.27809551
29        3.68954393       60.52651548        1.27809551
29        0.73790879       58.43939425        1.27809551
29        0.00000000       62.61363670        0.00000000
29        2.95163514       64.70075792        0.00000000
29        1.47581757       66.78787915        0.00000000
29        2.21372636       62.61363670        1.27809551
29        3.68954393       66.78787915        1.27809551
29        0.73790879       64.70075792        1.27809551
29        0.00000000       68.87500037        0.00000000
29        2.95163514       70.96212159        0.00000000
29        1.47581757       73.04924282        0.00000000
29        2.21372636       68.87500037        1.27809551
29        3.68954393       73.04924282        1.27809551
29        0.73790879       70.96212159        1.27809551
