 # Fcc Cu oriented X=[1-10], Y=[11-2], Z=[111].
 CRYSTAL
 PRIMVEC
      2.55619101        0.00000000        0.00000000
      0.00000000        4.42745271        0.00000000
      0.00000000        0.00000000      219.14772845
 CONVVEC
      2.55619101        0.00000000        0.00000000
      0.00000000        4.42745271        0.00000000
      0.00000000        0.00000000      219.14772845
 PRIMCOORD
      210 1
29        0.00000000        0.00000000        0.00000000
29        0.00000000        2.95163514        4.17424245
29        0.00000000        1.47581757        2.08712122
29        1.27809551        3.68954393        2.08712122
29        1.27809551        0.73790879        4.17424245
29        1.27809551        2.21372636        0.00000000
29        0.00000000        0.00000000        6.26136367
29        0.00000000        2.95163514       10.43560612
29        0.00000000        1.47581757        8.34848489
29        1.27809551        3.68954393        8.34848489
29        1.27809551        0.73790879       10.43560612
29        1.27809551        2.21372636        6.26136367
29        0.00000000        0.00000000       12.52272734
29        0.00000000        2.95163514       16.69696979
29        0.00000000        1.47581757       14.60984856
29        1.27809551        3.68954393       14.60984856
29        1.27809551        0.73790879       16.69696979
29        1.27809551        2.21372636       12.52272734
29        0.00000000        0.00000000       18.78409101
29        0.00000000        2.95163514       22.95833346
29        0.00000000        1.47581757       20.87121223
29        1.27809551        3.68954393       20.87121223
29        1.27809551        0.73790879       22.95833346
29        1.27809551        2.21372636       18.78409101
29        0.00000000        0.00000000       25.04545468
29        0.00000000        2.95163514       29.21969713
29        0.00000000        1.47581757       27.13257590
29        1.27809551        3.68954393       27.13257590
29        1.27809551        0.73790879       29.21969713
29        1.27809551        2.21372636       25.04545468
29        0.00000000        0.00000000       31.30681835
29        0.00000000        2.95163514       35.48106080
29        0.00000000        1.47581757       33.39393957
29        1.27809551        3.68954393       33.39393957
29        1.27809551        0.73790879       35.48106080
29        1.27809551        2.21372636       31.30681835
29        0.00000000        0.00000000       37.56818202
29        0.00000000        2.95163514       41.74242447
29        0.00000000        1.47581757       39.65530324
29        1.27809551        3.68954393       39.65530324
29        1.27809551        0.73790879       41.74242447
29        1.27809551        2.21372636       37.56818202
29        0.00000000        0.00000000       43.82954569
29        0.00000000        2.95163514       39.65530324
29        0.00000000        1.47581757       41.74242447
29        1.27809551        3.68954393       41.74242447
29        1.27809551        0.73790879       39.65530324
29        1.27809551        2.21372636       43.82954569
29        0.00000000        0.00000000       50.09090936
29        0.00000000        2.95163514       45.91666691
29        0.00000000        1.47581757       48.00378814
29        1.27809551        3.68954393       48.00378814
29        1.27809551        0.73790879       45.91666691
29        1.27809551        2.21372636       50.09090936
29        0.00000000        0.00000000       56.35227303
29        0.00000000        2.95163514       52.17803058
29        0.00000000        1.47581757       54.26515181
29        1.27809551        3.68954393       54.26515181
29        1.27809551        0.73790879       52.17803058
29        1.27809551        2.21372636       56.35227303
29        0.00000000        0.00000000       62.61363670
29        0.00000000        2.95163514       58.43939425
29        0.00000000        1.47581757       60.52651548
29        1.27809551        3.68954393       60.52651548
29        1.27809551        0.73790879       58.43939425
29        1.27809551        2.21372636       62.61363670
29        0.00000000        0.00000000       68.87500037
29        0.00000000        2.95163514       64.70075792
29        0.00000000        1.47581757       66.78787915
29        1.27809551        3.68954393       66.78787915
29        1.27809551        0.73790879       64.70075792
29        1.27809551        2.21372636       68.87500037
29        0.00000000        0.00000000       75.13636404
29        0.00000000        2.95163514       79.31060649
29        0.00000000        1.47581757       77.22348526
29        1.27809551        3.68954393       77.22348526
29        1.27809551        0.73790879       79.31060649
29        1.27809551        2.21372636       75.13636404
29        0.00000000        0.00000000       81.39772771
29        0.00000000        2.95163514       85.57197016
29        0.00000000        1.47581757       83.48484893
29        1.27809551        3.68954393       83.48484893
29        1.27809551        0.73790879       85.57197016
29        1.27809551        2.21372636       81.39772771
29        0.00000000        0.00000000       87.65909138
29        0.00000000        2.95163514       91.83333383
29        0.00000000        1.47581757       89.74621260
29        1.27809551        3.68954393       89.74621260
29        1.27809551        0.73790879       91.83333383
29        1.27809551        2.21372636       87.65909138
29        0.00000000        0.00000000       93.92045505
29        0.00000000        2.95163514       98.09469750
29        0.00000000        1.47581757       96.00757627
29        1.27809551        3.68954393       96.00757627
29        1.27809551        0.73790879       98.09469750
29        1.27809551        2.21372636       93.92045505
29        0.00000000        0.00000000      100.18181872
29        0.00000000        2.95163514      104.35606117
29        0.00000000        1.47581757      102.26893994
29        1.27809551        3.68954393      102.26893994
29        1.27809551        0.73790879      104.35606117
29        1.27809551        2.21372636      100.18181872
29        0.00000000        0.00000000      106.44318239
29        0.00000000        2.95163514      110.61742484
29        0.00000000        1.47581757      108.53030361
29        1.27809551        3.68954393      108.53030361
29        1.27809551        0.73790879      110.61742484
29        1.27809551        2.21372636      106.44318239
29        0.00000000        0.00000000      112.70454606
29        0.00000000        2.95163514      116.87878851
29        0.00000000        1.47581757      114.79166728
29        1.27809551        3.68954393      114.79166728
29        1.27809551        0.73790879      116.87878851
29        1.27809551        2.21372636      112.70454606
29        0.00000000        0.00000000      118.96590973
29        0.00000000        2.95163514      123.14015218
29        0.00000000        1.47581757      121.05303095
29        1.27809551        3.68954393      121.05303095
29        1.27809551        0.73790879      123.14015218
29        1.27809551        2.21372636      118.96590973
29        0.00000000        0.00000000      125.22727340
29        0.00000000        2.95163514      129.40151585
29        0.00000000        1.47581757      127.31439462
29        1.27809551        3.68954393      127.31439462
29        1.27809551        0.73790879      129.40151585
29        1.27809551        2.21372636      125.22727340
29        0.00000000        0.00000000      131.48863707
29        0.00000000        2.95163514      135.66287952
29        0.00000000        1.47581757      133.57575829
29        1.27809551        3.68954393      133.57575829
29        1.27809551        0.73790879      135.66287952
29        1.27809551        2.21372636      131.48863707
29        0.00000000        0.00000000      137.75000074
29        0.00000000        2.95163514      141.92424319
29        0.00000000        1.47581757      139.83712196
29        1.27809551        3.68954393      139.83712196
29        1.27809551        0.73790879      141.92424319
29        1.27809551        2.21372636      137.75000074
29        0.00000000        0.00000000      144.01136441
29        0.00000000        2.95163514      148.18560686
29        0.00000000        1.47581757      146.09848563
29        1.27809551        3.68954393      146.09848563
29        1.27809551        0.73790879      148.18560686
29        1.27809551        2.21372636      144.01136441
29        0.00000000        0.00000000      150.27272808
29        0.00000000        2.95163514      154.44697053
29        0.00000000        1.47581757      152.35984930
29        1.27809551        3.68954393      152.35984930
29        1.27809551        0.73790879      154.44697053
29        1.27809551        2.21372636      150.27272808
29        0.00000000        0.00000000      156.53409175
29        0.00000000        2.95163514      152.35984930
29        0.00000000        1.47581757      154.44697053
29        1.27809551        3.68954393      154.44697053
29        1.27809551        0.73790879      152.35984930
29        1.27809551        2.21372636      156.53409175
29        0.00000000        0.00000000      162.79545542
29        0.00000000        2.95163514      158.62121297
29        0.00000000        1.47581757      160.70833420
29        1.27809551        3.68954393      160.70833420
29        1.27809551        0.73790879      158.62121297
29        1.27809551        2.21372636      162.79545542
29        0.00000000        0.00000000      169.05681909
29        0.00000000        2.95163514      164.88257664
29        0.00000000        1.47581757      166.96969787
29        1.27809551        3.68954393      166.96969787
29        1.27809551        0.73790879      164.88257664
29        1.27809551        2.21372636      169.05681909
29        0.00000000        0.00000000      175.31818276
29        0.00000000        2.95163514      171.14394031
29        0.00000000        1.47581757      173.23106154
29        1.27809551        3.68954393      173.23106154
29        1.27809551        0.73790879      171.14394031
29        1.27809551        2.21372636      175.31818276
29        0.00000000        0.00000000      181.57954643
29        0.00000000        2.95163514      177.40530398
29        0.00000000        1.47581757      179.49242521
29        1.27809551        3.68954393      179.49242521
29        1.27809551        0.73790879      177.40530398
29        1.27809551        2.21372636      181.57954643
29        0.00000000        0.00000000      187.84091010
29        0.00000000        2.95163514      183.66666765
29        0.00000000        1.47581757      185.75378888
29        1.27809551        3.68954393      185.75378888
29        1.27809551        0.73790879      183.66666765
29        1.27809551        2.21372636      187.84091010
29        0.00000000        0.00000000      194.10227377
29        0.00000000        2.95163514      189.92803132
29        0.00000000        1.47581757      192.01515255
29        1.27809551        3.68954393      192.01515255
29        1.27809551        0.73790879      189.92803132
29        1.27809551        2.21372636      194.10227377
29        0.00000000        0.00000000      200.36363744
29        0.00000000        2.95163514      196.18939499
29        0.00000000        1.47581757      198.27651622
29        1.27809551        3.68954393      198.27651622
29        1.27809551        0.73790879      196.18939499
29        1.27809551        2.21372636      200.36363744
29        0.00000000        0.00000000      206.62500111
29        0.00000000        2.95163514      202.45075866
29        0.00000000        1.47581757      204.53787989
29        1.27809551        3.68954393      204.53787989
29        1.27809551        0.73790879      202.45075866
29        1.27809551        2.21372636      206.62500111
29        0.00000000        0.00000000      212.88636478
29        0.00000000        2.95163514      208.71212233
29        0.00000000        1.47581757      210.79924356
29        1.27809551        3.68954393      210.79924356
29        1.27809551        0.73790879      208.71212233
29        1.27809551        2.21372636      212.88636478
