Converted from struttt/Cut_3_Block_X2_Z1_N199.vasp (Triclinic/Cu)

199 atoms
3 atom types
0.0 13.858901 xlo xhi
0.0 13.423723 ylo yhi
0.0 13.665593 zlo zhi
0.000000 0.000000 0.000000 xy xz yz

Masses

1 63.546
2 63.546
3 63.546

Atoms # atomic

1 1 0.074251 4.732711 6.908292
2 1 10.078751 4.710011 6.991592
3 1 8.847651 3.547911 8.785792
4 1 11.323451 4.797311 11.459092
5 1 10.112351 3.748011 13.361692
6 1 7.475151 6.335911 0.666532
7 1 9.992651 7.116811 3.330252
8 1 8.764351 6.030611 5.167792
9 1 11.336751 6.860211 7.591092
10 1 10.029751 5.709911 9.310892
11 1 10.056951 7.031611 12.033392
12 1 8.817051 8.321711 1.406862
13 1 11.267051 9.258111 3.629902
14 1 10.175251 8.034711 5.611292
15 1 10.226651 9.103911 8.012692
16 1 8.895951 8.057811 9.991192
17 1 10.178951 9.400011 11.802392
18 1 11.374551 11.769311 0.068602
19 1 10.213051 10.385911 1.841102
20 1 10.122751 11.505811 4.317542
21 1 8.838251 10.353111 6.274992
22 1 10.258551 11.674711 7.942092
23 1 7.577551 3.863111 4.496252
24 1 8.836551 10.527811 9.803992
25 1 8.868551 4.979711 2.664562
26 1 6.231851 1.659811 13.275692
27 1 7.529251 9.202411 8.044292
28 1 6.421051 7.953911 10.026092
29 1 7.646351 9.487811 11.783792
30 1 7.662951 10.476211 1.904032
31 1 7.673951 11.399711 4.404092
32 1 6.220651 10.365911 6.252192
33 1 7.425551 11.742311 7.970392
34 1 6.385751 10.497511 9.808992
35 1 7.582751 11.998711 11.691892
36 1 6.300751 10.921811 13.596992
37 1 6.403351 12.583811 2.434142
38 1 6.265051 12.891911 6.177892
39 1 6.221051 13.117011 9.774592
40 1 6.243051 13.405611 13.398692
41 1 7.673851 0.247011 11.640292
42 1 7.598151 1.112211 0.651562
43 1 8.845251 2.370411 2.740492
44 1 7.491651 1.259511 4.577042
45 1 8.943651 2.546311 6.356392
46 1 7.614351 1.293611 8.324192
47 1 9.925851 2.555211 10.708792
48 1 7.519851 3.710711 0.906302
49 1 7.721551 8.305011 5.778392
50 1 10.042151 11.872411 11.640292
51 1 8.935751 12.628011 2.358462
52 1 11.409451 7.898411 9.758492
53 1 12.720951 9.434411 11.838692
54 1 12.683751 10.552711 1.986962
55 1 12.585551 11.476511 4.333672
56 1 11.408951 10.217111 6.066892
57 1 12.690251 11.714011 7.972092
58 1 11.465851 10.552311 9.886092
59 1 12.583651 11.804711 11.756492
60 1 11.420551 12.815911 2.576772
61 1 11.277051 12.960411 6.089692
62 1 11.338651 13.138611 9.816892
63 1 11.329651 13.390511 13.497492
64 1 12.830551 0.411711 11.514092
65 1 12.452951 1.377911 0.660812
66 1 12.763951 1.088811 4.601422
67 1 12.561651 1.025311 8.388192
68 1 11.415951 1.605611 13.410792
69 1 12.501751 3.741311 0.724692
70 1 12.584251 3.727211 4.633212
71 1 12.579651 6.085511 0.675042
72 1 13.852051 7.816611 9.881992
73 1 12.751551 9.079911 8.030392
74 1 8.770351 10.904011 13.544592
75 1 12.825851 8.050611 5.648292
76 1 12.597351 6.978911 12.029592
77 1 8.862451 12.821711 6.223592
78 1 8.742551 13.075611 9.775192
79 1 11.251751 0.043311 2.680152
80 1 10.318451 0.418011 11.726792
81 1 9.944351 1.247111 0.600742
82 1 11.331351 2.504811 2.556872
83 1 10.196951 1.252811 4.593282
84 1 11.493351 2.234711 6.432392
85 1 10.122051 1.078411 8.279792
86 1 12.513451 2.677111 10.859192
87 1 8.773651 1.509011 13.356992
88 1 10.109751 3.755011 0.630972
89 1 11.269251 5.064111 2.585902
90 1 10.258351 3.744111 4.503282
91 1 12.579451 4.738211 7.118692
92 1 11.280451 3.318511 8.657692
93 1 12.637151 3.760611 13.264192
94 1 10.011451 6.196311 0.719792
95 1 12.606951 7.213311 3.218582
96 1 11.419151 5.903911 5.010992
97 1 12.599151 5.457011 9.426092
98 1 11.405251 8.218711 1.385542
99 1 13.791751 12.773311 6.110092
100 1 8.925751 9.304611 3.869442
101 1 7.652551 6.965011 12.005892
102 1 2.415251 10.465811 1.964722
103 1 2.424051 11.592811 4.450372
104 1 1.312951 10.299611 6.251892
105 1 2.541851 11.636011 7.828892
106 1 1.362551 10.540911 9.827592
107 1 2.526451 11.999011 11.634692
108 1 1.162151 10.903811 13.413692
109 1 1.238651 12.609911 2.519972
110 1 1.101451 12.876311 6.162692
111 1 1.178451 13.038211 9.623992
112 1 1.122851 13.268811 13.271192
113 1 3.792751 0.018111 6.582492
114 1 2.506551 0.165611 11.769892
115 1 2.335851 1.114111 0.719892
116 1 3.655151 2.408011 2.608722
117 1 2.544451 1.148211 4.610332
118 1 3.733651 2.583611 6.511892
119 1 2.480951 1.497011 8.687592
120 1 5.004051 2.779711 11.128192
121 1 1.274651 1.464111 13.407092
122 1 2.360151 3.563311 0.721702
123 1 3.744551 11.650911 0.085102
124 1 3.533651 4.944611 2.695422
125 1 2.495351 9.433911 11.784792
126 1 2.473651 9.080311 8.033592
127 1 1.220151 4.685811 11.384092
128 1 1.308751 6.926411 7.580692
129 1 1.177751 9.347211 3.811612
130 1 0.006851 11.350611 4.322722
131 1 1.050251 2.388911 2.554932
132 1 1.212851 2.565011 6.448692
133 1 0.027251 1.374311 8.379992
134 1 2.495351 2.628911 11.045692
135 1 1.181951 4.915011 2.761912
136 1 2.521251 4.730311 6.988492
137 1 1.294251 3.605811 8.852792
138 1 3.850851 4.900111 11.462492
139 1 2.483151 3.695811 13.457192
140 1 2.287951 7.222611 3.339182
141 1 1.208451 5.921611 5.134792
142 1 3.695851 6.851311 7.550592
143 1 2.650851 5.808911 9.522192
144 1 2.573251 6.934411 11.940192
145 1 1.124851 8.423011 1.355262
146 1 3.755651 9.327811 4.011672
147 1 2.590651 7.976211 5.616492
148 1 1.253951 8.007511 9.988892
149 1 6.098951 8.412911 1.322722
150 1 2.519451 3.596811 4.638312
151 1 3.750351 3.719411 8.897392
152 1 3.660251 13.048111 9.756092
153 1 5.088251 0.378011 11.601792
154 1 5.034651 1.059611 0.738232
155 1 6.262551 2.275111 2.716012
156 1 5.022351 1.056411 4.530282
157 1 6.355251 2.468311 6.501592
158 1 5.017851 1.145211 8.259692
159 1 7.425951 2.751711 11.077892
160 1 3.739051 1.477511 13.420992
161 1 4.876351 3.652911 0.768992
162 1 6.135451 4.830311 2.588672
163 1 5.073151 3.641911 4.635582
164 1 7.568451 4.681111 7.093692
165 1 6.163651 3.404911 8.945092
166 1 8.876251 4.807211 11.457292
167 1 7.580451 3.848211 13.503492
168 1 4.888551 6.233511 0.882082
169 1 7.538751 6.970111 3.224572
170 1 6.293251 5.792711 5.138492
171 1 8.850451 6.945911 7.548492
172 1 7.606451 5.870211 9.527092
173 1 3.746751 12.926411 6.247892
174 1 4.974351 4.767911 7.037692
175 1 3.733551 12.752811 2.383082
176 1 5.146151 11.841211 11.571292
177 1 6.431151 4.860811 11.624192
178 1 5.012051 3.825211 13.492992
179 1 2.399951 6.104511 0.760692
180 1 4.774651 7.137211 3.347712
181 1 3.746651 5.812711 5.102892
182 1 6.296451 6.924911 7.449192
183 1 5.285751 5.688011 9.437792
184 1 5.129251 6.959011 11.963692
185 1 3.620051 8.330111 1.457662
186 1 6.415551 9.257011 3.765472
187 1 5.061051 8.132611 5.561892
188 1 4.995751 9.014611 7.962492
189 1 3.745751 7.992411 9.939792
190 1 5.185351 9.401211 11.658492
191 1 3.686851 8.512011 13.593092
192 1 6.146151 11.594911 0.076482
193 1 4.921451 10.578711 2.078682
194 1 5.023051 11.583111 4.351402
195 1 3.833051 10.363711 6.222592
196 1 5.043651 11.720611 8.079092
197 1 3.756151 10.433311 9.785792
198 1 3.776551 11.033611 13.525192
199 1 13.776851 13.191011 9.760592
