Converted from struttt/Cut_3_Block_X0_Z4_N190.vasp (Triclinic/Cu)

190 atoms
3 atom types
0.0 13.858901 xlo xhi
0.0 13.423723 ylo yhi
0.0 13.665593 zlo zhi
0.000000 0.000000 0.000000 xy xz yz

Masses

1 63.546
2 63.546
3 63.546

Atoms # atomic

1 1 4.168930 0.291561 0.258497
2 1 9.347150 8.678261 1.343497
3 1 8.153920 7.593361 3.559297
4 1 10.853190 8.605961 5.849297
5 1 9.438180 7.648661 7.928897
6 1 9.518100 8.673961 10.325097
7 1 8.185190 7.616861 12.492497
8 1 10.547990 10.739761 2.058297
9 1 9.398940 9.719261 3.873097
10 1 9.439120 10.768461 6.185897
11 1 8.252920 9.858161 8.141697
12 1 8.281620 10.788561 10.599797
13 1 6.864090 9.845061 12.506497
14 1 9.290000 13.104961 2.239597
15 1 8.091950 12.029161 4.288597
16 1 8.101500 13.058461 6.626697
17 1 6.951930 12.000361 8.508697
18 1 6.944130 13.094461 10.804497
19 1 5.713810 11.950661 12.714997
20 1 13.365890 0.645561 4.498397
21 1 9.498680 5.529861 12.004397
22 1 10.774490 6.471561 10.003197
23 1 10.708690 5.402261 7.780297
24 1 9.388310 6.288561 5.480697
25 1 5.697420 11.942561 4.156897
26 1 5.641930 12.943961 6.529297
27 1 4.458970 11.856361 8.503097
28 1 4.392980 13.156361 10.654097
29 1 3.228640 12.034261 12.902897
30 1 11.793290 0.250761 0.456697
31 1 10.703590 0.720461 4.607397
32 1 10.638190 0.606061 8.290697
33 1 10.714890 0.693161 12.037697
34 1 13.117990 0.615361 8.203097
35 1 10.732990 1.499061 2.138697
36 1 9.387590 1.841461 6.348597
37 1 10.635390 3.090361 8.171897
38 1 9.443940 1.916061 9.999497
39 1 9.426980 3.727561 1.521197
40 1 10.632390 5.156861 3.482297
41 1 10.635990 4.019261 5.755997
42 1 11.915790 4.377861 9.739197
43 1 8.178240 3.278761 11.803297
44 1 9.422840 6.210161 1.649397
45 1 11.861390 2.924061 3.972797
46 1 13.207990 0.664761 12.068397
47 1 13.123090 1.574961 2.126197
48 1 11.938390 1.882061 6.263297
49 1 10.740790 11.984461 4.319397
50 1 10.822090 13.087061 6.536997
51 1 9.430180 11.973461 8.604997
52 1 9.356290 13.082261 10.795997
53 1 8.290340 11.826261 13.030997
54 1 13.290690 3.274961 11.728497
55 1 13.092390 7.548361 3.477997
56 1 13.405690 7.657261 12.259797
57 1 13.363490 9.733061 8.190497
58 1 11.768990 12.861461 2.300497
59 1 13.338990 10.865661 10.389497
60 1 13.307690 11.887261 4.281497
61 1 13.283790 12.936761 6.452997
62 1 11.953290 11.902061 8.630897
63 1 12.014890 13.077961 10.727597
64 1 10.747090 12.045561 12.661997
65 1 13.259790 11.847261 12.729697
66 1 1.672250 0.334761 0.003897
67 1 1.778940 2.806561 3.859297
68 1 0.524326 3.063061 8.063197
69 1 12.054190 9.733761 12.571997
70 1 6.796960 13.172961 2.226997
71 1 9.477260 9.823161 12.600297
72 1 10.706890 9.815261 8.251897
73 1 13.161090 3.123661 8.046197
74 1 12.058090 1.854361 10.027497
75 1 11.793890 3.719461 1.539097
76 1 13.161490 5.046561 3.429597
77 1 13.304890 4.081661 5.728597
78 1 10.638990 3.292761 11.676097
79 1 11.851090 6.256861 1.423497
80 1 11.885990 6.186661 5.347197
81 1 13.297490 5.434161 7.719197
82 1 10.760990 10.819261 10.592697
83 1 13.339490 6.460161 9.861397
84 1 11.930490 8.736961 1.555897
85 1 10.637490 7.534161 3.518097
86 1 13.230390 8.463761 5.842397
87 1 11.998090 7.668261 7.922197
88 1 12.048090 8.740561 10.306997
89 1 10.710490 7.587461 12.362697
90 1 13.172590 10.900861 1.952697
91 1 11.928590 9.829461 3.762997
92 1 12.022490 10.715961 6.311897
93 1 12.049190 5.472161 12.003397
94 1 4.366890 9.775861 12.495297
95 1 5.788700 10.859761 10.587097
96 1 5.731730 9.815161 8.250197
97 1 0.576563 9.783361 8.104197
98 1 0.558953 10.830561 10.413397
99 1 1.645030 12.977361 2.237397
100 1 0.504341 13.167961 6.515897
101 1 5.580660 0.604661 4.480297
102 1 5.529940 0.686061 8.257997
103 1 5.579010 0.644761 11.965997
104 1 5.498050 1.507261 2.117697
105 1 6.797820 2.867561 3.900797
106 1 1.808970 10.802761 6.267697
107 1 4.444720 1.806961 6.346597
108 1 4.338620 1.883861 10.132897
109 1 4.362420 2.056061 13.661697
110 1 4.212930 3.771661 1.683897
111 1 5.574230 5.020861 3.442297
112 1 5.576000 4.083561 5.805897
113 1 6.928680 4.460561 9.859197
114 1 3.040540 3.190061 11.696097
115 1 4.201260 6.108061 1.669197
116 1 4.250480 6.257061 5.551597
117 1 5.524300 3.071361 8.122697
118 1 5.795050 5.479061 7.773697
119 1 1.569590 9.706861 3.828497
120 1 2.007000 8.846861 10.156597
121 1 2.948440 0.562161 4.467797
122 1 3.078290 0.607161 8.221897
123 1 3.045670 0.684861 12.002897
124 1 2.979770 1.553561 1.995897
125 1 4.423950 2.761461 3.993097
126 1 1.787930 1.736061 6.157197
127 1 3.044650 2.933961 8.205797
128 1 1.641290 1.708461 9.999297
129 1 1.558480 3.710861 1.466597
130 1 2.910340 10.956061 1.939997
131 1 2.993670 5.059061 3.549397
132 1 4.348440 4.363361 9.808597
133 1 1.724230 6.214361 1.708797
134 1 1.772010 6.221761 5.376397
135 1 3.217360 5.395461 7.710597
136 1 3.231000 6.583061 10.031497
137 1 1.968240 5.519661 12.004197
138 1 1.662420 8.752961 1.466197
139 1 3.069530 8.397961 5.785497
140 1 1.851170 7.602061 7.675597
141 1 3.071180 3.856561 5.673097
142 1 0.554276 4.074261 5.730697
143 1 5.679030 6.544961 9.978797
144 1 4.289230 8.752261 1.562597
145 1 6.856990 1.841061 10.039697
146 1 6.829850 3.801861 1.633297
147 1 8.172160 5.095561 3.500097
148 1 8.186180 4.133761 5.693397
149 1 9.370650 4.476961 9.826297
150 1 5.699290 3.196561 11.739297
151 1 6.753150 6.205061 1.510797
152 1 6.949780 6.262861 5.497297
153 1 8.207420 5.521261 7.734397
154 1 8.074530 3.016161 8.004497
155 1 8.262460 6.617061 10.103597
156 1 6.764900 8.675761 1.608197
157 1 5.640110 7.582561 3.447997
158 1 8.080780 8.625061 5.821997
159 1 7.004590 7.685561 7.845897
160 1 7.003730 8.671261 10.231397
161 1 5.639470 7.473361 12.300197
162 1 8.019030 10.913561 2.031297
163 1 6.889700 9.829861 3.860397
164 1 6.923430 10.764761 6.127697
165 1 6.956860 5.492061 12.131597
166 1 4.401190 5.242861 12.192897
167 1 6.845690 1.917161 6.270197
168 1 7.983720 1.543161 2.084697
169 1 2.931550 7.552661 3.397997
170 1 5.513170 8.439161 5.862597
171 1 4.504320 7.615261 7.887597
172 1 4.400320 8.774261 10.271797
173 1 3.064730 7.648661 12.308097
174 1 5.604400 10.824561 1.873897
175 1 4.327950 9.760961 3.940997
176 1 4.439030 10.729661 6.243597
177 1 3.180020 9.711261 8.049597
178 1 9.320290 2.790861 3.861997
179 1 3.083960 10.939961 10.434897
180 1 4.270270 12.990761 2.357997
181 1 3.060400 11.851661 4.313097
182 1 3.083710 12.929861 6.596197
183 1 1.942660 11.858661 8.445597
184 1 1.731240 13.047361 10.774597
185 1 0.453211 11.996861 12.755797
186 1 7.918240 0.599761 4.476197
187 1 8.228280 0.555961 8.188597
188 1 8.036040 0.621061 11.844897
189 1 1.810140 9.825561 12.444497
190 1 1.863710 4.319961 9.773797
