 # Positions of grains centers of mass
 CRYSTAL
 PRIMVEC
    100.00000000        0.00000000        0.00000000
      0.00000000      100.00000000        0.00000000
      0.00000000        0.00000000       10.00000000
 CONVVEC
    100.00000000        0.00000000        0.00000000
      0.00000000      100.00000000        0.00000000
      0.00000000        0.00000000       10.00000000
 PRIMCOORD
        2 1
1       19.06174015       10.89390182       -4.52577040
1       19.06174015       10.89390182       -4.52577040
