LAMMPS data file via write_data, version 22 Jul 2025, timestep = 215, units = metal

147 atoms
3 atom types

0 11.400361 xlo xhi
0 12.098904 ylo yhi
0 12.816801 zlo zhi
0 0 0 xy xz yz

Masses

1 63.55
2 63.55
3 63.55

Atoms # atomic

1 1 1.381732955497317 1.9328467785708288 0.555406089076995 0 0 0
84 1 2.218784327243925 0.8611937104325723 2.6852565074612955 0 0 0
86 1 3.899928855879285 1.7512480498887915 1.0136971325412567 0 0 0
87 1 3.5594024760826257 2.9948582674615993 3.4105641231418606 0 0 0
94 1 1.1106473693775842 3.106288212387298 3.017384595524438 0 0 0
146 1 2.796249969528657 3.9917383480501614 1.2666073360353751 0 0 0
2 1 7.045737800200869 0.3288147717564291 3.556081628480186 0 0 0
16 1 7.654943358379267 3.593752845985375 2.164609693380681 0 0 0
117 1 4.6308352934363555 0.5994912340253097 3.1112576783088226 0 0 0
120 1 6.358827357365906 1.5185410295130508 1.4461653623002984 0 0 0
125 1 5.277035011757969 3.7819899027860853 1.670175832096331 0 0 0
127 1 5.9672420833325335 2.63475941977997 3.8357192129183986 0 0 0
4 1 8.757735331504913 1.2912555145436653 1.885219338378434 0 0 0
5 1 8.38110113804771 2.3580706090326973 4.2751804293474445 0 0 0
40 1 10.072564080746137 3.3142507858082215 2.5944787761828856 0 0 0
55 1 10.813974015849894 2.100349385452293 4.689351347011563 0 0 0
56 1 11.164810235108263 1.063800536547171 2.214121907027777 0 0 0
70 1 9.464877462991824 0.10015684956938561 3.973895456314627 0 0 0
96 1 9.397783259916443 4.541844164969335 0.5213949939594711 -1 0 0
101 1 0.9479331858480307 6.803975080103049 0.9324803503632492 0 0 0
102 1 0.3909204419301362 4.2734486014619755 0.9404619877922208 0 0 0
111 1 2.109502699045542 5.232535319013769 12.07575646142808 0 0 -1
135 1 1.785894000585167 5.602601888185411 2.9858805155424517 0 0 0
20 1 5.940867609776077 5.196162696615906 3.6859879646110434 0 0 0
26 1 7.446307089365873 7.0338760771292845 4.538308816662885 0 0 0
36 1 7.678942224159299 6.1284515685220695 2.070335108554576 0 0 0
124 1 4.567367572240478 4.969688734854624 12.426365127297824 0 0 -1
134 1 4.167356336765084 5.97134870284074 1.932196021310407 0 0 0
14 1 10.417035573895076 5.811940324778569 2.468905041239414 0 0 0
15 1 8.581501000717905 4.8563036637860915 4.128443071056165 0 0 0
42 1 11.084862797248062 4.577814006338997 4.576489030947415 0 0 0
52 1 0.9078396298013872 10.88082897326072 2.051409788554912 0 0 0
76 1 3.317769959645935 10.600335293809232 2.3534223035479336 0 0 0
81 1 2.612609577361141 11.792544390439815 0.2934987301225686 0 0 0
82 1 1.9181435921231664 9.289564043959993 0.30954250651673554 0 0 0
107 1 2.7649057421198897 8.08978565978661 2.3672697754744947 0 0 0
114 1 5.052498956880539 11.595121082005624 0.7258598664556332 0 0 0
18 1 7.467287445757122 11.317620222191946 1.1691806429754963 0 0 0
25 1 7.460422343628326 8.772235141818562 1.258910055448287 0 0 0
31 1 8.110722033916572 10.144658279794081 3.3289418350613427 0 0 0
130 1 5.73885431398851 10.366303814234959 2.8077912109802696 0 0 0
140 1 5.74615844648907 7.814814385199123 2.847122292228848 0 0 0
145 1 4.726131470801102 9.086115483148614 0.8543439834853295 0 0 0
30 1 9.832084518570058 11.092949243178314 1.6678592131182528 0 0 0
44 1 0.38441514651518116 7.676310533774556 3.3458027328840916 1 0 0
47 1 0.17884577293880527 11.82177857637798 12.712742674319097 1 0 -1
57 1 9.180413370471136 7.95553019943361 2.9275414333866765 0 0 0
62 1 10.947020753988522 8.9125187080876 1.3911367213216452 0 0 0
63 1 10.56757021657924 9.916532057300866 3.7237429859126423 0 0 0
85 1 0.1452605533617537 0.8880603165826491 6.822585857827777 0 0 0
88 1 1.8519563787101032 1.846200045796795 5.103940313571525 0 0 0
98 1 0.4045873533946539 3.331499968738247 6.735706209997089 0 0 0
118 1 2.5861041177442696 0.6459350034945867 7.237557256461728 0 0 0
131 1 2.8540137914507655 3.1059136347129876 7.185795706249199 0 0 0
3 1 5.017231783743152 0.4106693696122834 7.675828551467521 0 0 0
6 1 6.688161730294117 1.3864420684614163 5.964693269138805 0 0 0
75 1 5.291888929279151 2.8620178589070377 7.576853266270545 0 0 0
112 1 4.504111125251114 4.124024883505071 5.478222480383734 0 0 0
121 1 4.266334726985867 1.6274868111316876 5.512873097929958 0 0 0
126 1 6.936387044929563 3.8802983500531494 5.841389916075386 0 0 0
10 1 9.374423800792734 3.6099871100945937 6.283604841103843 0 0 0
11 1 7.713215053573333 2.630027585490664 8.006780530156883 0 0 0
41 1 10.138452383697512 2.389356171027075 8.469775403220156 0 0 0
49 1 9.860939677884463 12.04220875634429 8.562568791996966 0 -1 0
54 1 9.114672987296997 1.148892332743246 6.412338048021445 0 0 0
71 1 7.440128594990592 0.16929617910535094 8.13851952836335 0 0 0
51 1 1.045549427045059 6.503467036579938 5.397977120207861 0 0 0
97 1 2.1106593215645617 4.309148014785238 5.092779392430556 0 0 0
103 1 3.3017547160156635 6.1980643029092715 6.282328925010834 0 0 0
104 1 1.6630893671659024 5.245805210639963 7.702352264878649 0 0 0
108 1 1.6279145329014633 9.662857738789457 4.0631355677076995 0 0 0
22 1 6.618265966870245 4.867418566072383 8.320806730541536 0 0 0
136 1 5.791376654941562 6.106738484273886 6.191982999793378 0 0 0
137 1 4.1859050812611 5.029563967263699 8.115765092017153 0 0 0
141 1 3.9269646024606097 6.809424609957171 4.179121427055617 0 0 0
21 1 8.268531035016286 5.841560782509781 6.642920338151335 0 0 0
35 1 10.70471711134734 5.555327494998373 7.084431471474385 0 0 0
37 1 9.03930554406941 4.615747490785963 8.776163744435026 0 0 0
58 1 9.96350486289667 6.771858793158785 4.9822575205232855 0 0 0
77 1 0.5054738314162436 11.968365381222833 4.332755143694749 0 0 0
78 1 3.7168453256311484 10.534696474231177 6.832141632575701 0 0 0
83 1 2.955285058554053 11.679468342862954 4.7305382809307694 0 0 0
93 1 2.36558707156442 8.502938982050217 6.11059359667745 0 0 0
129 1 4.042653075411262 9.318455712663782 4.383745249752653 0 0 0
147 1 1.259900878062881 10.783899490049249 6.388428293701568 0 0 0
17 1 7.7674001352010835 11.2289771756937 5.7008207565557205 0 0 0
27 1 7.183271005162363 8.044822070768024 7.051311286065552 0 0 0
32 1 6.405025570016211 9.200856457748872 4.968328910163232 0 0 0
115 1 5.3610775232334005 11.451340228828311 5.198540873966896 0 0 0
128 1 6.108002063635046 10.275146420413476 7.388033335979348 0 0 0
142 1 4.73287098291316 8.28189081677929 6.616113747527552 0 0 0
33 1 8.533326653776623 10.030525835877459 7.838399866660393 0 0 0
53 1 11.314666180000076 8.743365103557998 5.7390409959221635 0 0 0
59 1 9.646559374547428 7.805725919613246 7.4627118564863055 0 0 0
64 1 8.857473806154967 8.976825114195229 5.403278371797548 0 0 0
65 1 10.967136298370548 9.869267945822651 8.027936823152132 0 0 0
68 1 10.19505152827282 11.023500168623901 6.0353618235571815 0 0 0
50 1 0.024659667540079113 4.364697559417865 9.305240375795881 0 0 0
89 1 1.1656513982522034 2.1578283372663223 8.892313252271952 0 0 0
95 1 10.89363646515958 1.1662241942614129 10.638848221882112 -1 0 0
99 1 2.4859449235328213 4.11836075186335 9.736758340605654 0 0 0
100 1 0.7799742398680166 3.2258083270352724 11.384373040090619 0 0 0
109 1 1.9081864579611694 0.9452587677263821 11.013583434445218 0 0 0
7 1 6.041382817239171 1.652992941665762 9.728505140159259 0 0 0
74 1 5.700799258207605 2.6982804311452075 12.168407054253473 0 0 0
122 1 3.607566040127239 1.9157525103997948 9.3036984649163 0 0 0
123 1 4.344691589285653 0.7006624461463842 11.43510412474257 0 0 0
132 1 4.958880750567469 3.8731080292453477 10.108522379676975 0 0 0
133 1 3.22746311619103 2.937719054241795 11.771563184228647 0 0 0
9 1 6.78834513725855 0.45558684232490987 11.87785237664051 0 0 0
12 1 9.801168111578251 3.432614062948005 10.987889605750404 0 0 0
13 1 8.16770888929857 2.4772738835157324 12.616089869491217 0 0 0
39 1 9.216725567241939 0.21863246372648126 12.337101649139846 0 0 0
45 1 8.468728515826516 1.416522509995108 10.175226258728289 0 0 0
110 1 7.391259619421316 3.6619661446801275 10.462226069156344 0 0 0
92 1 0.6986021723622164 7.522831220391986 7.736298871024303 0 0 0
105 1 1.383378509544434 6.388435114894628 10.021999013755742 0 0 0
106 1 11.09920931486268 5.600535139851191 11.748352149436583 -1 0 0
139 1 3.3509099980004105 7.221504974709835 12.794352623047923 0 0 0
143 1 3.051598383597149 7.370855828272616 8.399839970871493 0 0 0
23 1 6.288026834422087 5.917762628124856 10.75094294599707 0 0 0
24 1 5.952723068575934 6.935434959832034 0.40840495315476993 0 0 1
28 1 5.502323447887765 7.095138055986148 8.687377918656267 0 0 0
138 1 3.8336874531647966 6.149602328822475 10.406224370103557 0 0 0
38 1 7.024734782293577 4.745958602919751 0.007980619230256251 0 0 1
43 1 9.383014522673548 7.078333572157221 0.48447692878569615 0 0 1
46 1 10.411860844920362 6.6161588453502995 9.523684290310653 0 0 0
60 1 7.962550964124818 6.854736691542042 9.100766312957111 0 0 0
72 1 8.737772910218437 5.693675818967233 11.178702293832467 0 0 0
73 1 0.45088468817716515 8.687059740017624 9.855433670815268 0 0 0
79 1 2.0824104027872963 9.650149454200935 8.429243397952519 0 0 0
80 1 1.6418882923353677 10.585138381259057 11.01521508920309 0 0 0
90 1 0.897064166238418 11.800303437445168 8.93996877645676 0 0 0
91 1 2.705011575540406 8.38786320863121 10.736517826203594 0 0 0
116 1 3.349917164170483 11.567297156112003 9.390049949586675 0 0 0
8 1 5.7791391640094405 11.291197600342535 9.865178766273672 0 0 0
19 1 6.557034821584796 10.049278476943245 12.016805900868917 0 0 0
34 1 6.88084832393198 9.06072113234364 9.51618968450561 0 0 0
113 1 4.055222809055211 10.320732483171758 11.56132832748241 0 0 0
119 1 4.440912735604238 9.341634667847634 9.062618509614058 0 0 0
144 1 5.182264126898042 8.12440452692783 11.16751808570414 0 0 0
29 1 7.6964896472102335 7.8655668040529445 11.615830171296032 0 0 0
48 1 10.64408382263029 10.768554453462997 10.640081555683809 0 0 0
61 1 11.16050667547695 8.111922730199492 11.949178507650064 0 0 0
66 1 9.352895964393916 8.789591284256543 9.957884318764087 0 0 0
67 1 9.18359882095309 9.737559951484785 12.449187127970673 0 0 0
69 1 8.217256203537397 11.032870724352206 10.32033203511116 0 0 0

Velocities

1 0 0 0
84 0 0 0
86 0 0 0
87 0 0 0
94 0 0 0
146 0 0 0
2 0 0 0
16 0 0 0
117 0 0 0
120 0 0 0
125 0 0 0
127 0 0 0
4 0 0 0
5 0 0 0
40 0 0 0
55 0 0 0
56 0 0 0
70 0 0 0
96 0 0 0
101 0 0 0
102 0 0 0
111 0 0 0
135 0 0 0
20 0 0 0
26 0 0 0
36 0 0 0
124 0 0 0
134 0 0 0
14 0 0 0
15 0 0 0
42 0 0 0
52 0 0 0
76 0 0 0
81 0 0 0
82 0 0 0
107 0 0 0
114 0 0 0
18 0 0 0
25 0 0 0
31 0 0 0
130 0 0 0
140 0 0 0
145 0 0 0
30 0 0 0
44 0 0 0
47 0 0 0
57 0 0 0
62 0 0 0
63 0 0 0
85 0 0 0
88 0 0 0
98 0 0 0
118 0 0 0
131 0 0 0
3 0 0 0
6 0 0 0
75 0 0 0
112 0 0 0
121 0 0 0
126 0 0 0
10 0 0 0
11 0 0 0
41 0 0 0
49 0 0 0
54 0 0 0
71 0 0 0
51 0 0 0
97 0 0 0
103 0 0 0
104 0 0 0
108 0 0 0
22 0 0 0
136 0 0 0
137 0 0 0
141 0 0 0
21 0 0 0
35 0 0 0
37 0 0 0
58 0 0 0
77 0 0 0
78 0 0 0
83 0 0 0
93 0 0 0
129 0 0 0
147 0 0 0
17 0 0 0
27 0 0 0
32 0 0 0
115 0 0 0
128 0 0 0
142 0 0 0
33 0 0 0
53 0 0 0
59 0 0 0
64 0 0 0
65 0 0 0
68 0 0 0
50 0 0 0
89 0 0 0
95 0 0 0
99 0 0 0
100 0 0 0
109 0 0 0
7 0 0 0
74 0 0 0
122 0 0 0
123 0 0 0
132 0 0 0
133 0 0 0
9 0 0 0
12 0 0 0
13 0 0 0
39 0 0 0
45 0 0 0
110 0 0 0
92 0 0 0
105 0 0 0
106 0 0 0
139 0 0 0
143 0 0 0
23 0 0 0
24 0 0 0
28 0 0 0
138 0 0 0
38 0 0 0
43 0 0 0
46 0 0 0
60 0 0 0
72 0 0 0
73 0 0 0
79 0 0 0
80 0 0 0
90 0 0 0
91 0 0 0
116 0 0 0
8 0 0 0
19 0 0 0
34 0 0 0
113 0 0 0
119 0 0 0
144 0 0 0
29 0 0 0
48 0 0 0
61 0 0 0
66 0 0 0
67 0 0 0
69 0 0 0
