LAMMPS data file via write_data, version 22 Jul 2025, timestep = 237, units = metal

137 atoms
3 atom types

0 11.400361 xlo xhi
0 12.098904 ylo yhi
0 12.816801 zlo zhi
0 0 0 xy xz yz

Masses

1 63.55
2 63.55
3 63.55

Atoms # atomic

82 1 11.339345018154285 4.567289541820264 0.10227615337822252 -1 0 0
98 1 0.9664493147391803 3.2870429839728454 2.5371348145058086 0 0 0
100 1 1.9232984756984204 0.8833793849204982 2.4782379597693556 0 0 0
101 1 3.4285787591643895 3.0367102292214203 2.9988289222169 0 0 0
134 1 0.8293359134811433 2.159183749873666 0.2301278377507919 0 0 0
19 1 7.432951877042927 3.784741530019704 1.593049644651327 0 0 0
24 1 3.3591744243548676 1.8845068257651127 0.6925475586173191 0 0 0
89 1 4.40711060702174 0.6380282714368823 2.9275922237820544 0 0 0
118 1 4.951222020253399 4.028354127997482 1.1090157682059247 0 0 0
127 1 6.889718360255866 0.3963027388292873 3.379885685873362 0 0 0
130 1 5.893976086233449 2.790757385848627 3.454925379273461 0 0 0
28 1 8.360899419814695 2.543201130853364 3.9120193374405163 0 0 0
31 1 9.369145431071876 0.15244211318700812 3.8376655515805513 0 0 0
35 1 10.82765892349426 2.2923570077312685 4.372334630592319 0 0 0
42 1 8.358980912613072 1.3841188122521164 1.584092284152029 0 0 0
56 1 5.866770072564027 1.6296459734479631 1.1413702084184212 0 0 0
1 1 0.8274142082476539 5.812857735113182 2.234253234034248 0 0 0
71 1 2.286567329650958 7.937059495710628 2.797863607631789 0 0 0
72 1 2.2369648848843595 6.840577344131568 0.3545081893197451 0 0 0
77 1 2.45580498892111 4.287571069340897 0.6098557858730367 0 0 0
91 1 11.21007152981825 8.18715636108683 2.330914180274174 -1 0 0
96 1 3.3207060782810496 5.570090377895827 2.7116838966474384 0 0 0
14 1 7.238479344416394 6.311489455176519 1.2821582126104891 0 0 0
81 1 5.811210589860669 5.332565893156085 3.183789100012497 0 0 0
112 1 4.766233096328198 7.694825255146548 3.2614158015470704 0 0 0
113 1 4.738939571903845 6.566051221643764 0.818579640612691 0 0 0
13 1 7.247906845557229 7.456097996298224 3.7232203791311895 0 0 0
23 1 10.772522904911575 4.846131556517485 4.124143492729698 0 0 0
60 1 9.903863122245193 3.5394133568889967 2.0675370317470474 0 0 0
63 1 9.734396740673905 6.062178901847304 1.754442212537814 0 0 0
64 1 9.72820297904195 7.214401419165938 4.188502527914703 0 0 0
135 1 8.294871737280468 5.091963919632152 3.655039901508277 0 0 0
103 1 2.1401244671304798 10.462904025273955 2.6190050456177185 0 0 0
108 1 3.773310027827758 8.947877801137317 0.9433741334952245 0 0 0
123 1 10.040278958602117 12.057258550892548 12.661892251317328 -1 0 -1
4 1 6.105817604876793 11.21746327675512 1.229703012133693 0 0 0
8 1 7.090820783263436 9.978054778949614 3.5440301657881492 0 0 0
9 1 6.253357914182244 8.688971991966906 1.4075856268392473 0 0 0
51 1 8.732542259756563 8.438889108470326 1.8671351707021664 0 0 0
70 1 1.135037991903564 11.7611530629044 0.304907196847071 0 0 0
107 1 4.61575729280728 10.218651057133515 3.082035106317759 0 0 0
124 1 3.6218818068437266 11.478102622052683 0.7687550711185469 0 0 0
3 1 10.841860522235384 1.134753347307125 2.029575020368737 0 1 0
38 1 11.06542393271321 10.714952808479344 2.153224696393184 0 0 0
46 1 7.534670922077704 0.2610122111527839 12.204347479318951 0 1 -1
50 1 9.56343392935341 9.734426108816846 4.008533453115934 0 0 0
128 1 8.587694491562278 10.967360905556497 1.6895107010118322 0 0 0
84 1 2.7900829540516057 3.363490198638063 6.8754232578058145 0 0 0
86 1 1.8964498490564465 2.0438625404643798 4.831341826393567 0 0 0
88 1 2.894175860330775 0.828932586477873 7.1603381938653685 0 0 0
97 1 0.3243092457800718 3.60927633626352 6.419518080470994 0 0 0
99 1 0.40441486924397346 1.0664046640591671 6.688582641435692 0 0 0
27 1 6.844919082891768 1.5539856249534187 5.748949551432965 0 0 0
129 1 5.387406250987786 0.5872308416577137 7.6368901500093225 0 0 0
131 1 4.369556891971351 1.7991989948926836 5.288190274036657 0 0 0
132 1 5.252584025150622 3.113894893055844 7.335948538956675 0 0 0
26 1 7.7149564097314105 2.8611327168964182 7.804649706124444 0 0 0
30 1 7.880723275565541 0.3383447172322581 8.116898935699078 0 0 0
33 1 10.376166378683996 0.08896010645913091 8.590691739867102 0 0 0
53 1 9.322113405638154 1.3078338855699392 6.21726870818509 0 0 0
54 1 10.18451646758296 2.6147111434336616 8.278385782659416 0 0 0
75 1 1.8088498348109918 5.761469098043266 6.947702578509518 0 0 0
80 1 1.847664210690067 4.600634414312262 4.585975737902833 0 0 0
93 1 10.72706407707322 6.003236517358714 6.494669755741872 -1 0 0
94 1 0.8068461833227594 6.971440776100644 4.655217527670357 0 0 0
12 1 6.55251539408988 7.785044619272047 7.719957354591283 0 0 0
22 1 6.790906703535884 4.108317501843494 5.501455221711573 0 0 0
76 1 3.287270032753779 6.731402613886348 5.1176271181576665 0 0 0
116 1 4.292747555066011 5.516986277447168 7.39725085171599 0 0 0
117 1 5.768430260116554 6.491260540385844 5.576639517262472 0 0 0
121 1 4.321204019424021 4.356192548667894 5.0429498335277865 0 0 0
18 1 8.247917364918788 6.247456655916333 6.0363096942284455 0 0 0
32 1 6.7748146125919195 5.2660458423371335 7.84600642503755 0 0 0
57 1 9.25777047842823 3.8573898659566823 5.9619032122148035 0 0 0
65 1 9.029670943475832 7.532157891063982 8.184255150936483 0 0 0
67 1 9.257064832486488 5.015911439733207 8.292065958430909 0 0 0
85 1 1.601764791155148 8.279609878876075 6.791638857913588 0 0 0
90 1 0.44802514398388577 12.007185518782423 4.297482978553476 0 0 0
104 1 0.6350679460430663 9.48991269313908 4.473833478020264 0 0 0
105 1 3.9303185106246477 10.561846110442564 7.075349241255725 0 0 0
106 1 3.108838889386538 9.249066404211531 4.936798272547996 0 0 0
122 1 1.4501663612752815 10.803147826190576 6.612376645153261 0 0 0
125 1 2.9290769682268327 11.766646658788805 4.756414455799885 0 0 0
2 1 7.888838750304946 11.284171592045713 5.684444410127113 0 0 0
6 1 6.407414561646883 10.312604958477689 7.542108547290242 0 0 0
7 1 5.582793305931656 9.008593487079898 5.39952983244167 0 0 0
69 1 5.4097520319719035 11.526884592290516 5.21809006844983 0 0 0
111 1 4.077492183999415 8.03632303439587 7.254329220387615 0 0 0
36 1 11.363796402089756 9.81066918180201 8.466460215496715 0 0 0
37 1 10.527309282133345 8.520319744194861 6.32945682120535 0 0 0
41 1 0.11071937308488441 7.282245345172153 8.644326600669965 1 0 0
45 1 10.368848446101024 11.041991195951896 6.150306301492227 0 0 0
48 1 8.884704662676361 10.06058886333314 8.006723556441719 0 0 0
49 1 8.054966708276062 8.764422773914117 5.864618737782836 0 0 0
78 1 1.768691261774805 3.3638184929226336 11.093158730568005 0 0 0
83 1 1.2643169744856546 2.371877787433822 8.760761271508171 0 0 0
87 1 10.531774590312917 3.668901849670693 10.598529738751742 -1 0 0
136 1 11.35439234586631 1.2459812672765185 10.759968639736933 -1 0 0
25 1 6.270993532476369 1.8381337083907017 9.76528840967244 0 0 0
29 1 2.493917758994102 0.920053400589929 11.251896718462824 0 0 0
119 1 4.423996669256199 3.04565645874609 11.592246850295247 0 0 0
133 1 3.7575173600672263 2.115549117122868 9.25776863619638 0 0 0
20 1 7.065618007386487 2.7379917398820792 12.088046159558814 0 0 0
34 1 5.019725103530438 0.5820554710977055 11.736561723628935 0 0 0
43 1 9.668122460659541 2.4456099776182834 12.572585312639319 0 0 0
55 1 8.80771768681994 1.5481634492141492 10.266300875640685 0 0 0
58 1 10.078379770534312 6.14746498358261 10.486339462051479 0 0 0
73 1 1.1916616046837023 5.829646249603397 10.951993451115229 0 0 0
74 1 2.5944366151538563 7.024089812452434 9.104800018011192 0 0 0
92 1 1.0464123895981543 8.387815570466001 10.81931200163627 0 0 0
95 1 0.3472128258317962 4.770435778103474 8.734791050013643 0 0 0
15 1 6.253636905768529 5.163371652681243 11.926266484176308 0 0 0
79 1 2.8523461834203947 4.517794260673528 9.182190107259856 0 0 0
114 1 3.715622242653252 5.492516748292728 11.434701952369803 0 0 0
115 1 5.080554484592715 6.743925719435552 9.56863151885347 0 0 0
120 1 5.3786247795734665 4.245652229159638 9.64263376966084 0 0 0
17 1 7.57421006746023 6.448706861354817 10.02921260034101 0 0 0
21 1 7.935224166484161 3.960060617561618 10.115514554027424 0 0 0
52 1 8.617035407076933 7.433301138681589 12.241123769347913 0 0 0
61 1 11.131428324243233 7.134216155160389 12.704543394949619 0 0 0
62 1 8.800222073198631 4.8584720247165105 12.419408403792529 0 0 0
5 1 2.6432944843271 10.44757017747248 11.38659529461525 0 0 0
11 1 4.927404765555034 9.277994996532572 9.401496181414341 0 0 0
102 1 1.2881096714907068 9.2263500700524 0.47056002049781 0 0 1
109 1 3.56752770146574 8.062584357338263 11.301394619438685 0 0 0
110 1 2.443323820580779 9.553883073190782 8.92946020314035 0 0 0
126 1 1.4749560756760827 11.934937922287295 9.055083666371566 0 0 0
10 1 6.093521506733903 7.739583908822364 11.77689893983802 0 0 0
16 1 6.48181856274646 11.371724992275798 9.985344029499151 0 0 0
47 1 5.165252614869821 10.121028620210641 11.868698570240468 0 0 0
59 1 3.976665325382987 11.663631220348359 9.518614278680072 0 0 0
66 1 7.423036430919375 8.988518666743248 9.874570129586662 0 0 0
39 1 10.190988900840653 9.516590753187149 12.814911903244345 0 0 0
40 1 9.931203767120536 8.694636739536845 10.344323611557023 0 0 0
44 1 8.994888650549052 11.072954770977855 10.44936472393502 0 0 0
68 1 7.681544188268754 9.811444818240272 12.345031606389384 0 0 0
137 1 0.11706168009065168 10.768436856645952 10.9128637669487 1 0 0

Velocities

82 0 0 0
98 0 0 0
100 0 0 0
101 0 0 0
134 0 0 0
19 0 0 0
24 0 0 0
89 0 0 0
118 0 0 0
127 0 0 0
130 0 0 0
28 0 0 0
31 0 0 0
35 0 0 0
42 0 0 0
56 0 0 0
1 0 0 0
71 0 0 0
72 0 0 0
77 0 0 0
91 0 0 0
96 0 0 0
14 0 0 0
81 0 0 0
112 0 0 0
113 0 0 0
13 0 0 0
23 0 0 0
60 0 0 0
63 0 0 0
64 0 0 0
135 0 0 0
103 0 0 0
108 0 0 0
123 0 0 0
4 0 0 0
8 0 0 0
9 0 0 0
51 0 0 0
70 0 0 0
107 0 0 0
124 0 0 0
3 0 0 0
38 0 0 0
46 0 0 0
50 0 0 0
128 0 0 0
84 0 0 0
86 0 0 0
88 0 0 0
97 0 0 0
99 0 0 0
27 0 0 0
129 0 0 0
131 0 0 0
132 0 0 0
26 0 0 0
30 0 0 0
33 0 0 0
53 0 0 0
54 0 0 0
75 0 0 0
80 0 0 0
93 0 0 0
94 0 0 0
12 0 0 0
22 0 0 0
76 0 0 0
116 0 0 0
117 0 0 0
121 0 0 0
18 0 0 0
32 0 0 0
57 0 0 0
65 0 0 0
67 0 0 0
85 0 0 0
90 0 0 0
104 0 0 0
105 0 0 0
106 0 0 0
122 0 0 0
125 0 0 0
2 0 0 0
6 0 0 0
7 0 0 0
69 0 0 0
111 0 0 0
36 0 0 0
37 0 0 0
41 0 0 0
45 0 0 0
48 0 0 0
49 0 0 0
78 0 0 0
83 0 0 0
87 0 0 0
136 0 0 0
25 0 0 0
29 0 0 0
119 0 0 0
133 0 0 0
20 0 0 0
34 0 0 0
43 0 0 0
55 0 0 0
58 0 0 0
73 0 0 0
74 0 0 0
92 0 0 0
95 0 0 0
15 0 0 0
79 0 0 0
114 0 0 0
115 0 0 0
120 0 0 0
17 0 0 0
21 0 0 0
52 0 0 0
61 0 0 0
62 0 0 0
5 0 0 0
11 0 0 0
102 0 0 0
109 0 0 0
110 0 0 0
126 0 0 0
10 0 0 0
16 0 0 0
47 0 0 0
59 0 0 0
66 0 0 0
39 0 0 0
40 0 0 0
44 0 0 0
68 0 0 0
137 0 0 0
