LAMMPS data file via write_data, version 22 Jul 2025, timestep = 286, units = metal

145 atoms
3 atom types

0 11.400361 xlo xhi
0 12.098904 ylo yhi
0 12.816801 zlo zhi
0 0 0 xy xz yz

Masses

1 63.55
2 63.55
3 63.55

Atoms # atomic

78 1 0.9796817826565226 6.253071578435348 2.684276410687492 0 0 0
81 1 2.1879801937093193 4.093022242152856 3.63023668340016 0 0 0
91 1 1.1189663150337226 1.6197850053001792 2.626242119740037 0 0 0
99 1 1.6584711913828538 0.03279939363988886 4.510941105003459 0 0 0
117 1 2.998399241692872 3.2913553960392092 1.508090625214355 0 0 0
139 1 3.4527765705711886 0.8489825490548512 2.7607977953163756 0 0 0
27 1 6.06940254229611 1.0224263067342747 3.3106970041699766 0 0 0
28 1 7.679526833538292 1.905294665039332 1.5965882942614222 0 0 0
29 1 7.072337126006592 3.4102100529907724 3.526831174787015 0 0 0
33 1 5.542285257071865 4.282019493474713 1.6497846372528102 0 0 0
141 1 5.0992700694453035 1.864288692642989 1.194218839519537 0 0 0
142 1 4.4641311137876585 2.971693458406639 3.502626433503534 0 0 0
49 1 11.220120486899958 0.6344101060984253 0.6975384927921381 0 0 0
58 1 9.378920708248307 12.013270614049521 2.2846004607909256 0 -1 0
60 1 9.969588409065855 2.9451320452781324 0.5476227359574499 0 0 0
61 1 9.96600532710816 2.2166762586730813 2.90039204186404 0 0 0
66 1 7.934613508964989 4.340271048379709 0.9499244268984197 0 0 0
145 1 0.2676261585990497 3.8551847821752294 2.184297698118736 1 0 0
83 1 3.3983752511662018 5.862743958206063 2.1284345450295463 0 0 0
84 1 2.8443903313697225 6.153737030811621 4.737617183362093 0 0 0
95 1 0.29387847270956485 8.758129971586527 2.637784239540831 0 0 0
3 1 7.353335574795051 6.0741408832147705 3.7209263502249628 0 0 0
115 1 5.699842341611685 6.729160440370827 2.0082065606012507 0 0 0
116 1 5.074950879403087 5.263977993977695 4.03743655182983 0 0 0
122 1 4.949509974223392 7.717239767781173 4.4349323947352 0 0 0
126 1 4.054334322221376 4.9792359555725225 12.583414418624583 0 0 -1
2 1 8.219135387340685 6.820946838575312 1.545046900256035 0 0 0
16 1 8.407368932921926 8.28167036877455 4.695145151681574 0 0 0
38 1 10.027224311534459 7.0438007176968 3.2873173987123727 0 0 0
55 1 9.238436211537858 4.632687441176652 2.9231106556637534 0 0 0
65 1 11.16990336707427 4.226325611185488 11.454765594564323 0 0 -1
70 1 10.533885821355872 5.632198213353056 1.015473103302781 0 0 0
102 1 1.985617451802053 7.701113126523636 0.8784056753158667 0 0 0
103 1 0.9141615499144687 10.192967004291308 0.6448001422302311 0 0 0
130 1 3.2229656124799013 9.769647308689072 0.16268610675647074 0 0 0
131 1 2.6221316990116352 10.564758987850912 2.584421704085632 0 0 0
136 1 0.2511540385959786 11.254141180146137 2.68922915574636 0 0 0
23 1 4.734851477414474 11.423485404310659 1.1538357095836114 0 0 0
37 1 7.203072847289482 11.205309954322018 1.5349777012638217 0 0 0
73 1 5.482721130064782 10.804018242160273 3.3521892965810034 0 0 0
90 1 4.42213419590748 8.88832323063891 2.147830389399568 0 0 0
121 1 6.804320867456498 8.683238978374597 3.0208787187243504 0 0 0
144 1 6.3925131220330105 8.918943338618542 0.6881724021611084 0 0 0
9 1 9.08974172455468 9.196838667780316 2.1632589062884544 0 0 0
13 1 8.563313498076813 8.277892711948704 12.465275569122113 0 0 -1
14 1 7.96087555521618 10.853703839710647 3.858069674972917 0 0 0
41 1 10.855876685582018 8.001406888447505 0.44794190019575275 0 0 0
42 1 10.226940695918115 9.91504674603916 4.347217912484617 0 0 0
46 1 9.920617009253176 10.45869342822364 0.2630392897622165 0 0 0
1 1 1.427254461473589 4.503344522843947 5.916232417462119 0 0 0
75 1 0.19471009511835705 2.5762141042903006 4.798509111304087 0 0 0
79 1 3.8797213305515768 4.074317252565855 5.87541043984099 0 0 0
80 1 0.6844638471480153 2.5857987232997806 9.447077800350861 0 0 0
140 1 0.9835451922901456 1.234634047632529 6.792716137673264 0 0 0
143 1 2.640827418509878 2.165394475781418 5.094753650846741 0 0 0
26 1 7.606257726564186 2.1542375066439075 6.691162633650797 0 0 0
30 1 5.440911474491075 2.2087697476404915 5.60208893037461 0 0 0
34 1 3.5619721788157075 1.1176813958355152 7.210165761405072 0 0 0
59 1 5.939178442255051 0.9139594658305896 7.995732380525414 0 0 0
112 1 4.891292721389478 3.1356786068608984 7.9225981970547235 0 0 0
19 1 9.21879909379827 3.415092233876678 5.128196062811163 0 0 0
50 1 8.409287565512951 0.42886052869377606 8.363220881244512 0 0 0
51 1 9.915308862386032 1.3786227823445032 6.626924656185152 0 0 0
62 1 8.269094387579479 1.2319235037518044 4.394253512347071 0 0 0
67 1 11.10311749344663 5.004211329812984 4.408056065387132 0 0 0
68 1 9.602237077802899 2.5631607592289702 9.054887385724934 0 0 0
86 1 2.269442103550553 3.205544303466059 7.689482568701322 0 0 0
96 1 1.9679061334170274 6.4056561002187395 7.252508679404318 0 0 0
97 1 0.8512425927863958 5.172248198585964 9.142085556983073 0 0 0
100 1 0.6224274619685649 7.271104821619994 5.048351818687908 0 0 0
108 1 2.546109878334008 8.112842629707238 3.4034076042086086 0 0 0
85 1 4.5068067635891165 6.233559616731379 6.583382974017871 0 0 0
111 1 6.719592788867711 4.3896501455782015 5.779157075450226 0 0 0
118 1 6.791743191080077 6.87256034591873 6.035818338472548 0 0 0
125 1 6.173584840314193 5.1865004715808904 8.059196594246949 0 0 0
4 1 9.06688807244975 5.930782502136968 5.448071261999858 0 0 0
5 1 8.682205144963191 4.220352875068125 7.4080726377793935 0 0 0
54 1 11.085940217639493 3.4722422302347398 7.269955561287061 0 0 0
92 1 11.246225597586607 11.07392702129013 6.584169407727947 -1 0 0
104 1 2.282853875616799 11.060299064191533 6.6113039379260545 0 0 0
107 1 0.9190657032472823 8.844841931733132 7.201794832270041 0 0 0
109 1 2.9909285210456407 8.272226086669116 6.1608236309219 0 0 0
132 1 1.217972909299325 9.713688228392781 4.795484125567443 0 0 0
137 1 4.1661963122130805 0.2058069776127768 4.962207174247844 0 1 0
15 1 6.42956732587183 9.671389371458597 5.3352870735123945 0 0 0
20 1 6.902953455398405 10.734128741777688 7.750517406963111 0 0 0
24 1 6.545287776268474 0.0062650940355767374 5.665712361870184 0 1 0
71 1 3.7661944797251516 9.94604561872664 4.737434220093469 0 0 0
123 1 5.26455437226444 8.583975069995443 7.022364954978524 0 0 0
133 1 4.649210917526979 10.934120743516472 6.989136451091429 0 0 0
10 1 7.952409502390944 8.740256933286474 7.176753108490592 0 0 0
17 1 9.711110192640078 10.156413778076972 8.282628333472058 0 0 0
39 1 10.934526850609007 5.935057519618552 7.049464013146839 0 0 0
43 1 10.171919135837129 8.31757809244672 6.317510539566462 0 0 0
47 1 10.558284940467138 0.3029451922085147 4.535409289736003 0 1 0
56 1 8.80607797225554 11.129497533907179 6.140956635527387 0 0 0
76 1 1.7232482422505362 1.1181122013038893 11.181137673839716 0 0 0
77 1 2.2803022337297385 0.2544146502600544 0.6696944877861334 0 0 1
89 1 3.7487972678431043 2.579623258937611 12.098333801089616 0 0 0
94 1 1.1034274881148296 2.68400647702892 0.08970206692238256 0 0 1
128 1 3.300295837503964 2.1113981767985623 9.600016210628722 0 0 0
31 1 5.548620417446501 1.6576400279949859 10.364830693707095 0 0 0
32 1 6.429619761561662 0.5478153709662534 12.439574647392126 0 0 0
114 1 6.391077034888901 3.187423417210183 12.221256949977523 0 0 0
127 1 4.05040867762 0.262854354626359 11.772829878975633 0 0 0
8 1 8.729160053803604 3.566626081508432 11.301930038860853 0 0 0
63 1 7.990693202781878 1.4219401933302946 10.65246382034174 0 0 0
64 1 8.892387645039529 0.5944955579386565 12.739198852446467 0 0 0
69 1 10.58430678428199 1.647621354850618 11.211371305068415 0 0 0
72 1 10.880556253108303 0.3712849233687613 8.837977458785659 0 0 0
87 1 3.420526953525988 5.057345093404112 8.801673186272708 0 0 0
88 1 1.537183559042264 5.178563223960079 0.38193200415617107 0 0 1
93 1 2.2372667760984637 4.0201912168436 10.889398572572642 0 0 0
98 1 2.393677011939608 6.457365694815097 11.276695991937375 0 0 0
110 1 1.5419722422962752 7.684908327948771 9.341235465824072 0 0 0
7 1 6.459973821601197 5.965826966844845 12.566651877871402 0 0 0
11 1 6.481457097541237 7.430239098538934 8.832659650303876 0 0 0
82 1 4.985915355460652 3.9885168787662684 10.34080320388989 0 0 0
113 1 7.147658922990164 3.082657317435798 9.055414541604126 0 0 0
119 1 4.849009937478946 6.3534963903645485 10.558692432207405 0 0 0
120 1 4.353779958955102 7.455538924802596 0.031489921775450486 0 0 1
124 1 3.87689589318418 7.4407570704543256 8.612769017304327 0 0 0
6 1 7.21470151644835 5.295200766573417 10.283316568417268 0 0 0
18 1 9.788228524862642 5.089180738282201 9.504503248191268 0 0 0
40 1 8.56708612672158 6.5362860851927 7.838339583183731 0 0 0
44 1 8.991208029419637 5.845690334989144 12.051703364300694 0 0 0
53 1 11.194930792008286 6.696077499720009 11.080798471803678 0 0 0
101 1 1.188223094975942 8.768268140322764 11.513732562944716 0 0 0
105 1 0.562114898675736 10.111566193340508 9.273055694281531 0 0 0
106 1 0.14607279498842937 11.362525076803323 11.389769492875125 0 0 0
134 1 2.94557500958496 9.721114737341985 8.529343602065973 0 0 0
135 1 2.475479530980143 10.78172625369954 10.837587806414058 0 0 0
138 1 1.8780956699697497 0.13138174958154156 8.845014336158508 0 1 0
21 1 5.332177983825038 9.558714408695286 9.301689368538803 0 0 0
22 1 5.2440565050687855 10.271698085545173 11.697001774746958 0 0 0
25 1 4.239901368248179 11.792826106022488 9.34954885605252 0 0 0
57 1 6.638094377386486 11.588000344185298 10.0631699652286 0 0 0
74 1 6.39917530677781 8.11077575379488 11.205972371454651 0 0 0
129 1 3.6082604213287484 8.57856171676849 10.77653435155037 0 0 0
12 1 8.673736740554432 7.282752729184462 10.176628232605983 0 0 0
35 1 7.862414639129021 9.478839330905451 9.710821562180824 0 0 0
36 1 7.681668542661576 10.492837517972275 12.027396195112372 0 0 0
45 1 10.588025585752542 7.766461526708024 8.74994014020505 0 0 0
48 1 9.300677203598466 11.461783237046943 10.47084097229762 0 0 0
52 1 10.224900332673004 9.167906271371788 10.852374253229556 0 0 0

Velocities

78 0 0 0
81 0 0 0
91 0 0 0
99 0 0 0
117 0 0 0
139 0 0 0
27 0 0 0
28 0 0 0
29 0 0 0
33 0 0 0
141 0 0 0
142 0 0 0
49 0 0 0
58 0 0 0
60 0 0 0
61 0 0 0
66 0 0 0
145 0 0 0
83 0 0 0
84 0 0 0
95 0 0 0
3 0 0 0
115 0 0 0
116 0 0 0
122 0 0 0
126 0 0 0
2 0 0 0
16 0 0 0
38 0 0 0
55 0 0 0
65 0 0 0
70 0 0 0
102 0 0 0
103 0 0 0
130 0 0 0
131 0 0 0
136 0 0 0
23 0 0 0
37 0 0 0
73 0 0 0
90 0 0 0
121 0 0 0
144 0 0 0
9 0 0 0
13 0 0 0
14 0 0 0
41 0 0 0
42 0 0 0
46 0 0 0
1 0 0 0
75 0 0 0
79 0 0 0
80 0 0 0
140 0 0 0
143 0 0 0
26 0 0 0
30 0 0 0
34 0 0 0
59 0 0 0
112 0 0 0
19 0 0 0
50 0 0 0
51 0 0 0
62 0 0 0
67 0 0 0
68 0 0 0
86 0 0 0
96 0 0 0
97 0 0 0
100 0 0 0
108 0 0 0
85 0 0 0
111 0 0 0
118 0 0 0
125 0 0 0
4 0 0 0
5 0 0 0
54 0 0 0
92 0 0 0
104 0 0 0
107 0 0 0
109 0 0 0
132 0 0 0
137 0 0 0
15 0 0 0
20 0 0 0
24 0 0 0
71 0 0 0
123 0 0 0
133 0 0 0
10 0 0 0
17 0 0 0
39 0 0 0
43 0 0 0
47 0 0 0
56 0 0 0
76 0 0 0
77 0 0 0
89 0 0 0
94 0 0 0
128 0 0 0
31 0 0 0
32 0 0 0
114 0 0 0
127 0 0 0
8 0 0 0
63 0 0 0
64 0 0 0
69 0 0 0
72 0 0 0
87 0 0 0
88 0 0 0
93 0 0 0
98 0 0 0
110 0 0 0
7 0 0 0
11 0 0 0
82 0 0 0
113 0 0 0
119 0 0 0
120 0 0 0
124 0 0 0
6 0 0 0
18 0 0 0
40 0 0 0
44 0 0 0
53 0 0 0
101 0 0 0
105 0 0 0
106 0 0 0
134 0 0 0
135 0 0 0
138 0 0 0
21 0 0 0
22 0 0 0
25 0 0 0
57 0 0 0
74 0 0 0
129 0 0 0
12 0 0 0
35 0 0 0
36 0 0 0
45 0 0 0
48 0 0 0
52 0 0 0
