LAMMPS data file via write_data, version 22 Jul 2025, timestep = 263, units = metal

158 atoms
3 atom types

0 11.400361 xlo xhi
0 12.098904 ylo yhi
0 12.816801 zlo zhi
0 0 0 xy xz yz

Masses

1 63.55
2 63.55
3 63.55

Atoms # atomic

105 1 0.8185697521415712 0.14659465108733505 2.4236282219053655 0 0 0
106 1 1.50969659434245 1.0770306691060685 4.524590739764854 0 0 0
110 1 1.5952940048957882 4.023592652544011 3.8044364231786014 0 0 0
117 1 1.1387253889382887 3.1561077398702246 1.2908902761164072 0 0 0
120 1 2.5726337970565045 1.9790133869499982 2.7905891640796203 0 0 0
138 1 3.7225629079605023 2.7717493843742242 0.9968174844644306 0 0 0
141 1 4.06002305406479 3.629068783866014 3.75923640352511 0 0 0
95 1 2.9691991602215593 11.464539997376898 2.9412071693183637 0 -1 0
96 1 3.9667114347850068 0.8151520233753697 4.441916200991732 0 0 0
130 1 6.715061226493571 11.902481103655663 0.8764437226875036 0 -1 0
131 1 7.203812730953433 0.8542831810199497 3.150848567994223 0 0 0
134 1 6.175716836620595 2.2865924414883945 0.9318651445148446 0 0 0
135 1 5.017291136894932 1.6036938060931545 2.7065158465424415 0 0 0
136 1 6.508777578446295 3.225909192483011 3.61588925794496 0 0 0
6 1 9.120591866959092 11.397098948487091 0.8158236807602262 0 -1 0
7 1 9.585836134863326 0.4027462610655271 2.8991988227762655 0 0 0
10 1 9.72725118967182 2.505954445739923 11.887652693317268 0 0 -1
11 1 8.464170721811788 1.6968374354672207 1.0818775559551468 0 0 0
12 1 8.877904674104629 2.723265753197856 3.4309378238560213 0 0 0
43 1 10.851922955565104 1.2988383325931496 0.9237032828595902 0 0 0
44 1 11.281875711815298 2.2755355099267085 3.2471034834343455 0 0 0
57 1 10.116739007474523 3.5915262858157018 1.4458409929315181 0 0 0
88 1 0.8756452417456685 8.52565449349546 0.49646100413845545 0 0 0
115 1 1.655478422924582 6.225808813170234 12.792144904514265 0 0 -1
116 1 0.8226760712052205 6.415125702245194 4.2487632861256515 0 0 0
147 1 2.830810111972979 4.91172398008432 1.8641862769159006 0 0 0
149 1 3.234865455281153 5.94423883529769 4.184569181217767 0 0 0
153 1 3.3019769848565694 8.099227010855646 0.36113287531831445 0 0 0
154 1 2.0555640235260135 7.280746351517367 2.319636123424259 0 0 0
21 1 6.524690701772757 5.306487826800176 12.573413246152075 0 0 -1
22 1 5.2847199959109465 4.475176643918565 1.7585775384944142 0 0 0
23 1 5.676222553726271 5.505425876367505 4.094638788123196 0 0 0
29 1 5.676631019426616 7.586652401309678 0.34276513460135605 0 0 0
37 1 4.456304197981621 6.788070888468065 2.2602664938448 0 0 0
38 1 7.7225428201370345 4.049674578668011 1.5924393871969855 0 0 0
65 1 6.898222698839844 6.324178005233786 2.1480920849882277 0 0 0
146 1 4.073842578813688 5.753013014152234 12.712921211929586 0 0 -1
28 1 9.36910712942156 5.871255062015879 2.0180399667741686 0 0 0
39 1 8.144762600211994 5.0393634740101785 3.963476721846448 0 0 0
49 1 0.40669217412066555 5.407265982764385 1.9284255119215215 1 0 0
50 1 10.571105471460722 4.544528926939832 3.8621622181116386 0 0 0
53 1 10.62092436439155 6.664068106770157 0.07169806872208094 0 0 0
54 1 11.024145101534428 7.719728830823809 2.4295971173735738 0 0 0
64 1 8.142463430027039 7.109392174708734 0.20835003212940656 0 0 0
85 1 2.531814137333731 10.483237174052148 0.735780593824402 0 0 0
86 1 1.2447490025774592 9.683646048872887 2.7576387970371496 0 0 0
91 1 1.7382781653663408 10.542653361980204 5.179778722809445 0 0 0
103 1 11.229116665661985 11.426583255220274 4.197441557386743 -1 0 0
128 1 3.709051192578599 9.162323654671406 2.6541065239364943 0 0 0
17 1 7.800121482758757 10.556873453218563 2.798508711731091 0 0 0
35 1 6.097706162884483 8.674670122029672 2.609911407819446 0 0 0
125 1 5.405653262636932 11.14163019818316 2.938986550317655 0 0 0
139 1 4.9687180703789595 9.98957232428009 0.6585261685117525 0 0 0
34 1 7.329417921932506 9.444621151279174 0.6957993802490483 0 0 0
55 1 0.01065307423992142 8.81504855721731 4.7204836904778125 1 0 0
60 1 10.16793383177654 10.014470969105838 2.7032067659427788 0 0 0
70 1 9.779264550130128 8.924611000513641 0.5924627720053015 0 0 0
71 1 8.531943374776814 8.14911273305219 2.522142184450886 0 0 0
76 1 0.09337697437758949 10.864194835792013 0.719899462418938 1 0 0
107 1 1.6655340675705752 1.8539781975276852 7.753639756436322 0 0 0
111 1 0.38947517871059983 3.0539198667837444 5.7178625328385015 0 0 0
112 1 0.8146743941788493 4.154795109502416 8.008086504946645 0 0 0
142 1 2.8495990767442527 2.716119828967123 5.726025204481678 0 0 0
79 1 5.746336046353119 3.318984846665737 7.881764771198774 0 0 0
80 1 5.296044435557774 2.3449045329781932 5.6472336749138 0 0 0
98 1 4.113057672586134 1.486409777712264 7.709514133478366 0 0 0
132 1 6.425227192483139 0.9200591172674999 7.514825318954432 0 0 0
143 1 3.2736436785424567 3.7745757907116166 7.974076411865952 0 0 0
8 1 8.766413408200894 0.3914539234410252 7.235469215765906 0 0 0
13 1 7.644946752873968 1.8281498689703983 5.4557901727082685 0 0 0
14 1 8.148636760988438 2.7571874230667377 7.759999573071446 0 0 0
45 1 10.010129094124757 1.3180428045867987 5.198603863471422 0 0 0
46 1 10.56556746572576 2.187465142149687 7.663271845382665 0 0 0
81 1 2.4752984396714246 8.29720641411115 4.612093714172804 0 0 0
82 1 11.017902233304866 5.49478436340131 6.161384904723747 -1 0 0
100 1 2.4667717860856126 6.058481242641479 8.41699726832344 0 0 0
156 1 3.6812638281359713 6.943005244044588 6.490562900173633 0 0 0
157 1 2.0283641424434635 5.035023749722079 6.0944347520504865 0 0 0
24 1 4.47524367027789 4.632388616563623 6.0365654797901955 0 0 0
25 1 7.388730374628366 5.140733055393718 8.2032885006618 0 0 0
30 1 7.316645636513892 7.3298989350416 4.461758241669771 0 0 0
31 1 6.117814297798233 6.466564267447301 6.4002179159756105 0 0 0
40 1 6.94129953616077 4.174269227040046 5.917500554447176 0 0 0
150 1 4.913917440074069 5.610398131203408 8.336916457491705 0 0 0
155 1 4.879678635832851 7.844464594526334 4.555013066746777 0 0 0
51 1 9.36486723577025 3.6365579977671056 5.798869940656836 0 0 0
61 1 9.806620207214324 4.622300056742335 8.084813276171582 0 0 0
66 1 9.79485968191487 6.878418254421538 4.350725171521735 0 0 0
67 1 8.591611070600608 5.993652976474701 6.272533686530285 0 0 0
87 1 4.1543112449011455 10.284012998581943 4.963944356282173 0 0 0
89 1 1.2633352478170972 7.37696843127366 6.545416846167244 0 0 0
92 1 2.9264567296518376 0.1847740863577393 6.238501413344603 0 1 0
93 1 1.8776666835207156 11.33030287732898 7.914021595673595 0 0 0
102 1 2.945068806925972 9.28399253980003 6.9709062104276995 0 0 0
104 1 0.4526408247971612 0.41219673643349203 6.345897784815361 0 1 0
127 1 4.647257054789935 11.120353989798447 7.36408994055133 0 0 0
2 1 8.298142614683417 11.587093512589925 4.925211367795609 0 0 0
3 1 7.039508110011912 10.648443135590341 7.055509936498548 0 0 0
20 1 7.741161101342304 8.282122954620526 6.757731963913888 0 0 0
121 1 6.557487604659738 9.693198977075332 4.816282506896865 0 0 0
122 1 5.3461379122742665 8.80124240989574 6.83074687080508 0 0 0
126 1 5.95509377301254 12.040148757713292 5.295502322609725 0 0 0
36 1 8.948723408002285 9.176751292244674 4.755140034462857 0 0 0
59 1 9.19275867611759 9.915960975218907 7.7298943935543285 0 0 0
68 1 10.213092920200168 10.760209972875524 5.991517759849628 0 0 0
72 1 0.45976205114732205 9.579229364286277 7.19397422993167 1 0 0
73 1 10.201003147628054 7.86979272311094 6.651335781260107 0 0 0
118 1 10.812443666339599 11.736320616497668 8.135730680390898 0 0 0
108 1 1.228981771399497 5.210250091541299 10.34378037143073 0 0 0
109 1 1.458809165040321 11.747587358425147 11.596040712373293 0 -1 0
113 1 0.4094892152875019 0.9920824884400689 9.730737984230018 0 0 0
114 1 2.03167954357836 0.8893906484456203 0.6934397506970154 0 0 1
119 1 2.8031277469572164 0.5378202339240088 9.63856079320794 0 0 0
144 1 2.050318833933997 2.9260649164361925 9.916195446205464 0 0 0
151 1 3.682996535198563 4.785553861302718 10.263315808687516 0 0 0
26 1 6.17223450847936 4.324718951626961 10.121845414471395 0 0 0
58 1 5.626019576536852 1.0883842433959912 11.724112639452311 0 0 0
78 1 4.517837894687493 2.478322558014358 9.835631680974398 0 0 0
133 1 4.3110343365006125 0.254883851993635 0.9003831043169211 0 0 1
145 1 3.262756901081692 1.6518126646272988 11.695105117724946 0 0 0
9 1 8.03417666221843 0.552318184580008 11.634302353796201 0 0 0
15 1 6.910310577184945 1.908601485189916 9.740899855781644 0 0 0
16 1 0.7697860652364182 2.1099322497350417 11.837859941932292 1 0 0
42 1 10.47242050784355 0.13617727962630455 11.675385686201597 0 0 0
47 1 9.32690708689838 1.3298499514589193 9.621279877473256 0 0 0
52 1 10.986478090381816 3.313893721049588 9.94004380456889 0 0 0
62 1 8.590474037792383 3.791042254761481 10.00701960319453 0 0 0
1 1 11.371761553541054 4.402725388834339 12.290554333394956 -1 0 0
83 1 4.1321382856155 7.906204198153818 8.831144148417259 0 0 0
84 1 2.9004986222681746 7.049702393240146 10.817403447251966 0 0 0
99 1 2.4180838068142654 3.9775557788038354 12.17924643036254 0 0 0
101 1 1.7216991595904518 8.344354239658902 8.954513496168195 0 0 0
33 1 7.764755198148352 6.126592984904487 10.57790849545996 0 0 0
140 1 6.530355405481373 7.4111665595746326 8.740647531489325 0 0 0
148 1 5.309808930055331 6.574559835077692 10.727843460057837 0 0 0
152 1 4.943281892513722 3.5458310503805843 12.000297388156847 0 0 0
27 1 7.373285277534962 3.01765103656052 11.91032061652248 0 0 0
32 1 8.993860399201015 6.974311140765648 8.60404375683905 0 0 0
63 1 8.957584654489823 4.849553869046467 12.409223024213727 0 0 0
69 1 0.0414777148794569 6.488151206910988 8.479379033586385 1 0 0
77 1 10.202553420476729 5.650631231538282 10.432303611545603 0 0 0
90 1 2.1339346981292087 9.343447817140882 11.354386641153548 0 0 0
94 1 0.7920589536002595 10.503160816799431 9.702522356214864 0 0 0
97 1 3.3912013341592524 10.204690808648072 9.37921401980116 0 0 0
124 1 4.5496972007854195 8.91464964405137 11.186974424573586 0 0 0
137 1 3.8544783742926185 11.295064985517316 11.55475658613208 0 0 0
4 1 7.5309311144922555 11.600670694280803 9.330143411500504 0 0 0
5 1 6.252246697406916 10.786939613028936 11.424880095724872 0 0 0
18 1 6.884306301653713 8.348732466431008 11.28236425641095 0 0 0
19 1 8.06584695700552 9.1111743885742 9.475801876766804 0 0 0
123 1 5.793674522379077 9.759463978574887 9.146739090577015 0 0 0
129 1 5.164513048115213 0.04109304791795109 9.550525257805576 0 1 0
41 1 8.550051436614265 10.177525306377099 11.669170114929948 0 0 0
48 1 9.726072589818587 10.919734559090823 9.89068540296332 0 0 0
56 1 0.4802007737748611 7.468582195002087 10.931258515149079 1 0 0
74 1 10.652310040349116 8.693049899709072 9.167323523864349 0 0 0
75 1 9.401005336543374 7.882975069814795 11.096013592131076 0 0 0
158 1 11.021279340360481 9.693095288180166 11.532121886559993 0 0 0

Velocities

105 0 0 0
106 0 0 0
110 0 0 0
117 0 0 0
120 0 0 0
138 0 0 0
141 0 0 0
95 0 0 0
96 0 0 0
130 0 0 0
131 0 0 0
134 0 0 0
135 0 0 0
136 0 0 0
6 0 0 0
7 0 0 0
10 0 0 0
11 0 0 0
12 0 0 0
43 0 0 0
44 0 0 0
57 0 0 0
88 0 0 0
115 0 0 0
116 0 0 0
147 0 0 0
149 0 0 0
153 0 0 0
154 0 0 0
21 0 0 0
22 0 0 0
23 0 0 0
29 0 0 0
37 0 0 0
38 0 0 0
65 0 0 0
146 0 0 0
28 0 0 0
39 0 0 0
49 0 0 0
50 0 0 0
53 0 0 0
54 0 0 0
64 0 0 0
85 0 0 0
86 0 0 0
91 0 0 0
103 0 0 0
128 0 0 0
17 0 0 0
35 0 0 0
125 0 0 0
139 0 0 0
34 0 0 0
55 0 0 0
60 0 0 0
70 0 0 0
71 0 0 0
76 0 0 0
107 0 0 0
111 0 0 0
112 0 0 0
142 0 0 0
79 0 0 0
80 0 0 0
98 0 0 0
132 0 0 0
143 0 0 0
8 0 0 0
13 0 0 0
14 0 0 0
45 0 0 0
46 0 0 0
81 0 0 0
82 0 0 0
100 0 0 0
156 0 0 0
157 0 0 0
24 0 0 0
25 0 0 0
30 0 0 0
31 0 0 0
40 0 0 0
150 0 0 0
155 0 0 0
51 0 0 0
61 0 0 0
66 0 0 0
67 0 0 0
87 0 0 0
89 0 0 0
92 0 0 0
93 0 0 0
102 0 0 0
104 0 0 0
127 0 0 0
2 0 0 0
3 0 0 0
20 0 0 0
121 0 0 0
122 0 0 0
126 0 0 0
36 0 0 0
59 0 0 0
68 0 0 0
72 0 0 0
73 0 0 0
118 0 0 0
108 0 0 0
109 0 0 0
113 0 0 0
114 0 0 0
119 0 0 0
144 0 0 0
151 0 0 0
26 0 0 0
58 0 0 0
78 0 0 0
133 0 0 0
145 0 0 0
9 0 0 0
15 0 0 0
16 0 0 0
42 0 0 0
47 0 0 0
52 0 0 0
62 0 0 0
1 0 0 0
83 0 0 0
84 0 0 0
99 0 0 0
101 0 0 0
33 0 0 0
140 0 0 0
148 0 0 0
152 0 0 0
27 0 0 0
32 0 0 0
63 0 0 0
69 0 0 0
77 0 0 0
90 0 0 0
94 0 0 0
97 0 0 0
124 0 0 0
137 0 0 0
4 0 0 0
5 0 0 0
18 0 0 0
19 0 0 0
123 0 0 0
129 0 0 0
41 0 0 0
48 0 0 0
56 0 0 0
74 0 0 0
75 0 0 0
158 0 0 0
