LAMMPS data file via write_data, version 22 Jul 2025, timestep = 134, units = metal

143 atoms
3 atom types

0 11.400361 xlo xhi
0 12.098904 ylo yhi
0 12.816801 zlo zhi
0 0 0 xy xz yz

Masses

1 63.55
2 63.55
3 63.55

Atoms # atomic

75 1 1.9306949291650901 0.9630149147518436 1.7477635346426468 0 0 0
76 1 3.3020469296236024 2.2116993263113995 3.5985466107254624 0 0 0
80 1 3.504193158739962 11.721565627165319 3.153611451972297 0 -1 0
82 1 1.7577352621712772 3.5141047835138877 2.1815974574875256 0 0 0
92 1 1.0638598205263472 11.385308227253123 3.526635449159433 0 -1 0
93 1 0.843549902678557 1.8783535395539896 3.957050853643005 0 0 0
32 1 6.915934043709501 1.552006453965962 1.0876732183724176 0 0 0
126 1 5.761643864760596 2.5213524727127825 3.2467756974666915 0 0 0
134 1 4.406401869745295 1.213747282298654 1.3882196294738307 0 0 0
140 1 5.977799255460456 12.015247974862165 2.7925127947729274 0 -1 0
28 1 8.482147526036446 0.2172308677416434 2.418909224178352 0 0 0
31 1 7.8694339091304375 3.194582704230478 12.231700174704851 0 0 -1
33 1 8.241237904146113 2.8405335661257514 2.893346075509357 0 0 0
61 1 11.328778041609247 0.2393871438073797 5.696813264111209 0 0 0
64 1 10.722688734432623 3.1468063989230117 2.51030995407673 0 0 0
70 1 9.441333644525965 1.8536469011511105 0.718208152207878 0 0 0
83 1 3.077302138393452 4.835778816471926 4.024724466913548 0 0 0
88 1 2.690435942815293 5.23854766904623 0.5231759733582049 0 0 0
89 1 1.5337958243802818 6.217259339228337 2.670605426486678 0 0 0
96 1 0.2333220308692025 4.889187669876855 0.8843995964743755 0 0 0
97 1 0.6200222258613394 4.483907984497807 4.367556729025947 0 0 0
100 1 0.38157697260615975 7.142630845681501 4.864029977969334 0 0 0
108 1 2.83787355511362 7.49873208961536 4.513753305104021 0 0 0
130 1 2.372893779544133 7.952714830534519 0.8291558652327907 0 0 0
3 1 6.689478139684982 4.19184508118321 1.5499119461427568 0 0 0
16 1 6.445284787943184 6.835770450570864 1.960752186085263 0 0 0
113 1 5.153285091015709 5.524875580023408 0.1656286601070582 0 0 0
114 1 4.2183425032073085 3.861115400518338 1.8660487446102554 0 0 0
115 1 5.532298460085712 5.171488206238261 3.6938557025855783 0 0 0
120 1 3.966514179676341 6.565809380694527 2.3001521648042034 0 0 0
121 1 5.300074827112515 7.816816473481049 4.140360620847065 0 0 0
2 1 7.626597015389977 5.808042273042458 12.629082905595617 0 0 -1
4 1 8.002608014217088 5.500190552284707 3.3676327620085043 0 0 0
10 1 7.771469544231824 8.12468684658534 3.7764050073874738 0 0 0
40 1 8.936171991737156 7.138180432631981 1.6080491695026027 0 0 0
41 1 10.23558708460869 8.445923574676625 3.4321844228952196 0 0 0
46 1 9.893879184050595 8.750565828533123 12.634631636888809 0 0 -1
55 1 9.161183621871851 4.52330745147452 1.2247944621729865 0 0 0
62 1 10.47569647271922 5.841604290874848 3.0249672111016968 0 0 0
69 1 10.094575504109509 6.1273274944482985 12.272709435772061 0 0 -1
34 1 2.093312970176412 10.525560152474654 1.2477667375128374 0 0 0
98 1 0.15518738977083923 9.73606337762021 5.2692264118989245 0 0 0
103 1 11.39649077762473 7.514430434590903 1.2432846240214803 -1 0 0
104 1 1.2851211859831155 8.818176549866656 3.0804757320689826 0 0 0
136 1 2.61353730161266 10.093566912587937 4.94849086561772 0 0 0
139 1 11.114293895622238 10.109583600559525 1.6409688323871263 -1 0 0
24 1 5.070965539502996 10.416758709089324 4.584161015905744 0 0 0
35 1 6.192273348842311 9.446686173747933 2.354572024561497 0 0 0
60 1 4.571179592119182 10.76747841507311 0.9034293959484768 0 0 0
72 1 4.8636745159412085 8.17204755783796 0.5298122786352164 0 0 0
131 1 3.715346461130625 9.165358745700107 2.7078754508468177 0 0 0
1 1 10.940694833574224 0.5429170283279141 2.0717251879664884 0 1 0
15 1 7.384801680864482 8.41909476314081 0.20174045624640632 0 0 0
17 1 8.706673049840038 9.750257907104976 1.9810813494952668 0 0 0
57 1 7.5415312351950705 10.713727804638955 4.2060632094723625 0 0 0
143 1 7.162492882552762 11.031679429955142 0.6211016991370637 0 0 0
77 1 2.3938264444636723 0.5834020505677254 5.364235033963108 0 0 0
78 1 3.6972993134680325 1.8622206965800894 7.241163968771479 0 0 0
84 1 2.1664891937044852 3.1770829101116522 5.7903674846978905 0 0 0
94 1 1.255948272486208 1.5381633634638132 7.555006792861754 0 0 0
5 1 7.099316863329905 3.8005869719109393 5.087339002650282 0 0 0
19 1 7.324848430581663 1.1992030869264516 4.637578501840835 0 0 0
110 1 6.205466546765245 2.163742395026772 6.874404348999677 0 0 0
116 1 4.855493897697656 0.9003513333533907 5.0184786575890845 0 0 0
117 1 4.6313940098679875 3.4921875094349866 5.448072901681564 0 0 0
141 1 5.2453464195942345 0.5741701222410749 8.624456638488759 0 0 0
26 1 8.678973952783746 2.452560194139762 6.516047947413473 0 0 0
29 1 7.827793516414782 0.8439616098022334 8.324285378395256 0 0 0
54 1 9.560206372497943 4.1288393240543835 4.715212698316598 0 0 0
63 1 10.293714387081234 1.099079105232611 7.984777245595297 0 0 0
65 1 9.785625278599428 1.524304882097326 4.27474597131057 0 0 0
66 1 11.10363017238745 2.818257449547718 6.137267345637914 0 0 0
85 1 3.4759612054991855 4.47172683942536 7.6200319869982085 0 0 0
99 1 1.0098864783309487 4.112717115062404 7.986607007337298 0 0 0
101 1 0.7725894771530402 6.744101262923446 8.363714517721027 0 0 0
109 1 3.2470533131549115 7.08956408254375 8.012459523949754 0 0 0
125 1 1.9290214004940172 5.782214016426909 6.210164201237257 0 0 0
11 1 6.869263011908722 6.448333982000638 5.5357523401340964 0 0 0
122 1 4.400942507637191 6.1209223078736255 5.8650357581713095 0 0 0
123 1 5.718100725292959 7.42317450344743 7.688153262298916 0 0 0
124 1 5.961058668051643 4.77617319827511 7.27127366888593 0 0 0
6 1 8.433356662042222 5.057690457716712 6.928532499181919 0 0 0
12 1 8.18517729837909 7.753865207612679 7.368141219903291 0 0 0
42 1 9.3261715317287 6.7909062052604225 5.20792295415894 0 0 0
43 1 10.64727484275677 8.119899174449449 7.064806698709607 0 0 0
44 1 10.869793520411546 5.415710145077974 6.565327943282314 0 0 0
90 1 1.4579339428469604 11.057280576403084 7.1251881799005234 0 0 0
105 1 0.5430233290265133 9.849863339996391 9.256907667357824 0 0 0
132 1 1.681095167826327 8.470063903041583 6.725948247111191 0 0 0
133 1 2.9884991024538325 9.750320571997337 8.50878232946307 0 0 0
20 1 4.161939088472179 8.77739674999428 6.338940453846305 0 0 0
21 1 5.493103935436258 10.065667493280094 8.151020609479044 0 0 0
25 1 6.417246371514229 11.69829820494515 6.433930883140778 0 0 0
36 1 6.637393439757896 9.09274207457363 5.980504657618589 0 0 0
137 1 3.923348880884348 11.397905192999813 6.808637190096505 0 0 0
47 1 9.096169747330457 9.40214617993039 5.6268697296846995 0 0 0
48 1 10.44563183394434 10.672574767135755 7.459005167419862 0 0 0
51 1 10.005335344023102 11.034099392489516 3.865861106259362 0 0 0
53 1 7.987910183230814 10.397274052150571 7.835309302532294 0 0 0
58 1 8.883520032736806 12.000380297267084 6.0653042899089336 0 0 0
79 1 0.6332015146940169 11.898971798250495 10.749446999317643 0 -1 0
81 1 2.869477243382269 2.5450037389898656 0.043016881019599856 0 0 1
86 1 2.5399765931108824 2.866341139939027 9.406204266588064 0 0 0
95 1 0.46422620454949687 1.5693787279748956 12.593489563737588 0 0 0
7 1 7.542672732142863 3.433037235241677 8.705795731937615 0 0 0
18 1 6.59123731604059 1.8589778051911088 10.438247998158174 0 0 0
74 1 4.042010411604026 1.569793140638602 10.753112695385493 0 0 0
111 1 2.568294700110794 0.20689822312917383 9.10706232970278 0 0 0
112 1 5.376147036360834 2.8811921397462683 12.548962119600718 0 0 0
118 1 5.034006847112139 3.178118855267842 9.034919985693795 0 0 0
127 1 5.576128907491702 0.24681956939157274 12.090022086436106 0 0 0
8 1 9.153202471949754 2.0937247177444784 10.199060858637694 0 0 0
30 1 8.159812262335201 0.5158472431941088 11.823205204925967 0 0 0
38 1 10.017247657639098 3.6789222133701274 8.38775561086732 0 0 0
67 1 0.21693552108419883 2.23728275675314 9.935411886444772 1 0 0
68 1 10.379364422455781 3.5162680089911555 11.953645591467337 0 0 0
87 1 3.853024824187428 4.212638459764992 11.187187958872066 0 0 0
102 1 1.1468487109741299 6.517461704610062 11.92737494102897 0 0 0
106 1 1.3844435595896347 3.888000306027974 11.565372694536876 0 0 0
128 1 2.3138595709528182 5.47896270073358 9.775935368889325 0 0 0
129 1 3.6049998382808615 6.831399901787019 11.569787549508808 0 0 0
13 1 7.25800685504135 6.0821793520998355 9.073147021008248 0 0 0
73 1 4.783834100127649 5.794327062350524 9.420837788593442 0 0 0
107 1 6.0830882923843665 7.10703276300557 11.226372265009504 0 0 0
119 1 6.329763104457425 4.492689476276495 10.826613427083611 0 0 0
9 1 8.812150050619715 4.764437027575097 10.48744303991771 0 0 0
14 1 8.556649217022105 7.397219265754451 10.868978941203375 0 0 0
39 1 11.261270722419248 5.092261929901661 10.12380890992346 0 0 0
45 1 9.717313368993072 6.3811187928636945 8.718266614705403 0 0 0
52 1 11.026414738892909 7.734430565759984 10.499151708089915 0 0 0
91 1 0.765087097059723 9.561119497547011 12.015003955833793 0 0 0
135 1 2.052182804191249 8.079310862904736 10.119853296765497 0 0 0
138 1 2.7781405150976903 12.08805731738092 12.222605818142464 0 0 0
142 1 3.255592569004868 9.503431422379313 11.865045954748354 0 0 0
22 1 4.548771603521311 8.409296278366883 9.827900195903336 0 0 0
23 1 5.839995769150461 9.734964493058804 11.632813204652534 0 0 0
27 1 4.29738412082169 11.061872975852484 10.27252140795624 0 0 0
37 1 7.031662250710588 8.735036832348701 9.512859337495675 0 0 0
59 1 6.8558159842042565 11.364178708664998 9.974274830860791 0 0 0
49 1 9.517884024337317 9.068140421758653 9.19556969826813 0 0 0
50 1 10.240677226206829 11.478260739545018 12.575069872139455 0 0 0
56 1 8.382808493081242 10.048551511733349 11.32621245771405 0 0 0
71 1 9.622986284497932 11.609777708444057 9.817187423926784 0 0 0

Velocities

75 0 0 0
76 0 0 0
80 0 0 0
82 0 0 0
92 0 0 0
93 0 0 0
32 0 0 0
126 0 0 0
134 0 0 0
140 0 0 0
28 0 0 0
31 0 0 0
33 0 0 0
61 0 0 0
64 0 0 0
70 0 0 0
83 0 0 0
88 0 0 0
89 0 0 0
96 0 0 0
97 0 0 0
100 0 0 0
108 0 0 0
130 0 0 0
3 0 0 0
16 0 0 0
113 0 0 0
114 0 0 0
115 0 0 0
120 0 0 0
121 0 0 0
2 0 0 0
4 0 0 0
10 0 0 0
40 0 0 0
41 0 0 0
46 0 0 0
55 0 0 0
62 0 0 0
69 0 0 0
34 0 0 0
98 0 0 0
103 0 0 0
104 0 0 0
136 0 0 0
139 0 0 0
24 0 0 0
35 0 0 0
60 0 0 0
72 0 0 0
131 0 0 0
1 0 0 0
15 0 0 0
17 0 0 0
57 0 0 0
143 0 0 0
77 0 0 0
78 0 0 0
84 0 0 0
94 0 0 0
5 0 0 0
19 0 0 0
110 0 0 0
116 0 0 0
117 0 0 0
141 0 0 0
26 0 0 0
29 0 0 0
54 0 0 0
63 0 0 0
65 0 0 0
66 0 0 0
85 0 0 0
99 0 0 0
101 0 0 0
109 0 0 0
125 0 0 0
11 0 0 0
122 0 0 0
123 0 0 0
124 0 0 0
6 0 0 0
12 0 0 0
42 0 0 0
43 0 0 0
44 0 0 0
90 0 0 0
105 0 0 0
132 0 0 0
133 0 0 0
20 0 0 0
21 0 0 0
25 0 0 0
36 0 0 0
137 0 0 0
47 0 0 0
48 0 0 0
51 0 0 0
53 0 0 0
58 0 0 0
79 0 0 0
81 0 0 0
86 0 0 0
95 0 0 0
7 0 0 0
18 0 0 0
74 0 0 0
111 0 0 0
112 0 0 0
118 0 0 0
127 0 0 0
8 0 0 0
30 0 0 0
38 0 0 0
67 0 0 0
68 0 0 0
87 0 0 0
102 0 0 0
106 0 0 0
128 0 0 0
129 0 0 0
13 0 0 0
73 0 0 0
107 0 0 0
119 0 0 0
9 0 0 0
14 0 0 0
39 0 0 0
45 0 0 0
52 0 0 0
91 0 0 0
135 0 0 0
138 0 0 0
142 0 0 0
22 0 0 0
23 0 0 0
27 0 0 0
37 0 0 0
59 0 0 0
49 0 0 0
50 0 0 0
56 0 0 0
71 0 0 0
