LAMMPS data file via write_data, version 22 Jul 2025, timestep = 206, units = metal

127 atoms
3 atom types

0 11.436528 xlo xhi
0 11.745825 ylo yhi
0 11.261292 zlo zhi
0 0 0 xy xz yz

Masses

1 63.55
2 63.55
3 63.55

Atoms # atomic

66 1 3.677751414708836 0.11149673771883371 3.5683227266913957 0 0 0
67 1 0.5169011792025139 2.6883738736893394 0.9718726325341498 0 0 0
92 1 1.2076522575556328 0.05357717352760323 1.5769689361826618 0 0 0
124 1 1.3987874242675966 1.9973851691371995 3.0867518592495 0 0 0
4 1 6.2186141279856875 2.865249354014061 3.7101770782846306 0 0 0
11 1 6.762096290892145 2.2081276195745767 0.07269813819208674 0 0 0
64 1 3.7798906997039836 2.576207555066408 3.4547358111983515 0 0 0
101 1 5.1803278832868855 1.1902221543928595 1.8144528081416653 0 0 0
102 1 2.9520925606831625 3.1439797061461467 1.3231091438070752 0 0 0
10 1 7.797498634989805 1.4321913185154502 2.275356700406241 0 0 0
43 1 8.675968301753482 3.150436690323061 4.055883031237641 0 0 0
49 1 9.414084418532582 2.4225967970018467 0.5828772468757951 0 0 0
62 1 10.353503152459616 1.6861597127288128 2.7098624881094375 0 0 0
82 1 1.2317879085789936 4.545340339712363 2.655418863445793 0 0 0
83 1 2.626115979103479 8.129083587602661 0.3804669150117595 0 0 0
88 1 0.3688555425703017 5.225872326893474 0.5083972126318517 0 0 0
118 1 3.6308033658614964 5.02529242740093 3.0198812511620714 0 0 0
125 1 2.7816696520199202 5.645804078459675 0.8508450994093256 0 0 0
25 1 6.061204342787479 5.3784115502182726 3.3104136874383587 0 0 0
26 1 7.620270718733564 6.419544442587484 1.5082435858797145 0 0 0
95 1 5.339448907988336 3.657835263029278 1.639922235957382 0 0 0
119 1 5.179205626798829 6.122267934794443 1.168115351109556 0 0 0
5 1 7.782635867131844 3.9036887606153345 1.9231642440542713 0 0 0
33 1 8.503144042408355 5.654162162463344 3.638702991010581 0 0 0
39 1 10.93741555012063 5.949384787239255 3.992868835123686 0 0 0
40 1 0.21476322944497137 7.725407559811332 0.053448950416376415 1 0 0
44 1 10.237333218501085 4.1736217235168045 2.2824567355254164 0 0 0
47 1 10.062370962112231 6.673187701335001 1.8521303492092398 0 0 0
1 1 2.5818314974873244 10.55615927666431 11.099545935960426 0 0 -1
71 1 10.840132481243694 10.93933623282014 3.0939125699100245 -1 0 0
76 1 1.043124602017936 7.10527691535482 2.190577704647662 0 0 0
107 1 3.2608095431964177 10.028665562841525 1.9977877183988195 0 0 0
126 1 3.4620964949720445 7.514622672198321 2.5408485365643316 0 0 0
14 1 5.737038075590788 10.40746078824745 2.366330950371993 0 0 0
19 1 5.890138076992886 7.886324874041155 2.84722693114271 0 0 0
77 1 5.036649625045354 8.612502654542142 0.6949562835110634 0 0 0
113 1 7.498818851801837 8.935750688852979 1.0562272972765416 0 0 0
20 1 10.003896588565688 9.18801324642798 1.4406117767598459 0 0 0
36 1 10.731744195092194 8.439727426777196 3.5810665116188267 0 0 0
52 1 8.263671338064619 10.690231602604506 2.725314095355822 0 0 0
57 1 8.326114395982342 8.168706562310554 3.1962498619140973 0 0 0
63 1 9.890892833845253 11.706462959504336 1.0024760355522997 0 0 0
79 1 2.2388651365820422 1.4692165454273325 5.238641257621786 0 0 0
86 1 0.5708204757190619 2.7823012703389285 6.643537841792484 0 0 0
91 1 11.272549586381759 0.9753242885624962 4.851420879429704 -1 0 0
96 1 0.7233785143235004 0.31091827783754994 7.005964742525444 0 0 0
122 1 3.022841308964412 3.160906417749655 7.010572599496616 0 0 0
8 1 8.042217337326335 1.4069160673968324 7.966999226962247 0 0 0
29 1 5.455593523335819 3.47303313893437 7.346331429591998 0 0 0
68 1 4.799775071309477 11.066968688409675 5.7879485140050315 0 -1 0
99 1 5.61202485469652 1.0174975994018636 7.574441522913013 0 0 0
100 1 4.682350206132451 1.7822460556228135 5.504157479296093 0 0 0
103 1 6.271991712646642 0.39853283580017956 4.016866316425858 0 0 0
2 1 7.834427896309939 3.8887803260252727 7.546471920928001 0 0 0
9 1 7.134606863976209 2.110087315486134 5.815017435645231 0 0 0
12 1 8.810165475193624 0.6669990232053098 4.442572553407164 0 0 0
42 1 10.223666303012235 4.19262279945356 7.959525038881884 0 0 0
46 1 9.585408447905824 2.41979339727937 6.217318363757501 0 0 0
48 1 11.12608027931435 3.4533265653852 4.440905761387684 0 0 0
81 1 1.8983431407299833 6.440736346609744 4.32144594837431 0 0 0
87 1 2.0881386545153524 3.919050287979678 4.832371592061675 0 0 0
94 1 0.3524820326536841 5.270022414115387 6.1560505331539614 0 0 0
116 1 2.774600108054258 5.692775476933655 6.466156935051511 0 0 0
23 1 5.221596649114435 6.014752885871123 6.8046782317242 0 0 0
24 1 6.771055115797282 7.123702924537022 4.986956291487976 0 0 0
31 1 6.945141409862704 4.608001708257216 5.427689543912148 0 0 0
117 1 4.339442881103605 6.782929086321863 4.673523400903389 0 0 0
123 1 4.52577510332622 4.26455105097713 5.175021724557899 0 0 0
3 1 9.380909348513153 4.914853601924205 5.782400819672694 0 0 0
38 1 10.071843559386485 6.708293604669414 7.49425128420778 0 0 0
60 1 7.647414452302777 6.382957140770676 7.126685986983753 0 0 0
61 1 9.200344099480327 7.422420981123505 5.346239627292257 0 0 0
70 1 11.418457384777186 10.252548552626289 5.299321692707537 -1 0 0
74 1 0.1888408907420941 7.7710520808553305 5.690825834192551 0 0 0
75 1 1.6279199431548967 9.126649936511358 3.6247253257568204 0 0 0
106 1 2.349331587451942 10.758766314215316 5.417202139669607 0 0 0
110 1 2.575961989915796 8.264893437413361 5.874143292955793 0 0 0
13 1 7.279764142608939 11.381683947840646 6.198010190705424 0 0 0
17 1 5.038558097176 8.554785272015868 6.2900630091565075 0 0 0
18 1 6.603838563612741 9.644420961478628 4.506914724256895 0 0 0
112 1 4.138308649520021 9.32398140327161 4.141034953343756 0 0 0
35 1 9.90269850858678 9.209963235320544 7.064100975848098 0 0 0
51 1 8.19474429130885 10.672854949249782 8.39726999672276 0 0 0
55 1 7.483071386568219 8.88961961113473 6.665580744645077 0 0 0
56 1 9.04125582206307 9.93643897434832 4.88906482073829 0 0 0
127 1 9.726799736635854 11.697533600044252 6.649400540358937 0 0 0
84 1 11.046678885882418 3.4332565101860477 10.109445976633658 -1 0 0
89 1 1.6414122885017688 11.320749735002448 9.091342094424302 0 -1 0
90 1 1.582844699433071 2.034920303721492 8.824935448108906 0 0 0
97 1 2.6753629061784845 1.2708586467320362 11.047030095549427 0 0 0
120 1 2.0904702421330996 3.802902928807485 10.444600091330267 0 0 0
27 1 4.511780564658485 4.245231294123711 10.764136113378514 0 0 0
65 1 4.931401717909663 11.111420518168307 0.21500417865772398 0 -1 1
98 1 6.488854287248608 0.4045250064019446 9.701877247072124 0 0 0
111 1 4.137526246949723 2.3816251689522825 9.225810286617262 0 0 0
6 1 7.370316647589276 11.445639810522511 0.5917468064112178 0 -1 1
7 1 10.509892854073529 1.6996396802732776 8.417928080750245 0 0 0
32 1 8.503188462000614 3.1597439901247313 9.723947647896857 0 0 0
41 1 9.361139046827171 4.927528770827599 0.1461507178945842 0 0 1
45 1 0.09860900375281821 0.9199991646920844 10.607572208510936 1 0 0
78 1 10.939082414151528 5.971476908668973 9.633309535289332 -1 0 0
80 1 1.0633523369078723 7.058061546409739 7.819135264182505 0 0 0
85 1 1.2179410833533295 4.541013958059334 8.308184725440052 0 0 0
114 1 1.9372496070951999 6.3225540891591 9.95382801900449 0 0 0
21 1 4.347429603777734 6.7444981284893295 10.248309397114294 0 0 0
22 1 5.9291822646342425 7.801316223088864 8.442441216202393 0 0 0
28 1 6.0881079156437155 5.275656868199044 8.939570376830202 0 0 0
115 1 3.4841011830840207 7.466512870919098 8.065123295714963 0 0 0
121 1 3.649387691091626 4.934627734430293 8.613860807878824 0 0 0
15 1 8.503595780978797 5.682065279684682 9.277453622249395 0 0 0
37 1 9.203621665496646 7.443658674037574 10.98557943554582 0 0 0
58 1 6.917541389531845 4.682902752016182 11.085770709336831 0 0 0
59 1 8.34809670797128 8.181454747744855 8.836098509807247 0 0 0
69 1 3.165647418225685 0.697124965051439 7.296656919747806 0 1 0
72 1 10.78970204981645 8.49041603159407 9.20632663926339 -1 0 0
73 1 0.8991499714156687 9.561416898233594 7.388877898597345 0 0 0
93 1 10.65806607034611 10.962330873266147 8.846385485596924 -1 0 0
108 1 1.793548874420442 8.812841787387923 9.484475932295203 0 0 0
16 1 4.233064256408023 9.203962047341426 9.751917309168471 0 0 0
30 1 6.636949697983387 9.652225929415671 10.15640021822705 0 0 0
104 1 4.080589953924447 11.662520914786072 9.341196478412947 0 0 0
105 1 5.76090781995291 10.301970060629628 7.964979926578774 0 0 0
109 1 3.308813176892192 9.964754985607875 7.5983958063196475 0 0 0
34 1 9.102353190013176 9.945989257137192 10.570322712482639 0 0 0
50 1 0.17593436795640216 10.192807474550598 11.071378545766859 1 0 0
53 1 6.760850536273178 7.156923553223611 10.619346372903365 0 0 0
54 1 8.963935717340384 0.6886235428952874 10.127235685017599 0 1 0

Velocities

66 0 0 0
67 0 0 0
92 0 0 0
124 0 0 0
4 0 0 0
11 0 0 0
64 0 0 0
101 0 0 0
102 0 0 0
10 0 0 0
43 0 0 0
49 0 0 0
62 0 0 0
82 0 0 0
83 0 0 0
88 0 0 0
118 0 0 0
125 0 0 0
25 0 0 0
26 0 0 0
95 0 0 0
119 0 0 0
5 0 0 0
33 0 0 0
39 0 0 0
40 0 0 0
44 0 0 0
47 0 0 0
1 0 0 0
71 0 0 0
76 0 0 0
107 0 0 0
126 0 0 0
14 0 0 0
19 0 0 0
77 0 0 0
113 0 0 0
20 0 0 0
36 0 0 0
52 0 0 0
57 0 0 0
63 0 0 0
79 0 0 0
86 0 0 0
91 0 0 0
96 0 0 0
122 0 0 0
8 0 0 0
29 0 0 0
68 0 0 0
99 0 0 0
100 0 0 0
103 0 0 0
2 0 0 0
9 0 0 0
12 0 0 0
42 0 0 0
46 0 0 0
48 0 0 0
81 0 0 0
87 0 0 0
94 0 0 0
116 0 0 0
23 0 0 0
24 0 0 0
31 0 0 0
117 0 0 0
123 0 0 0
3 0 0 0
38 0 0 0
60 0 0 0
61 0 0 0
70 0 0 0
74 0 0 0
75 0 0 0
106 0 0 0
110 0 0 0
13 0 0 0
17 0 0 0
18 0 0 0
112 0 0 0
35 0 0 0
51 0 0 0
55 0 0 0
56 0 0 0
127 0 0 0
84 0 0 0
89 0 0 0
90 0 0 0
97 0 0 0
120 0 0 0
27 0 0 0
65 0 0 0
98 0 0 0
111 0 0 0
6 0 0 0
7 0 0 0
32 0 0 0
41 0 0 0
45 0 0 0
78 0 0 0
80 0 0 0
85 0 0 0
114 0 0 0
21 0 0 0
22 0 0 0
28 0 0 0
115 0 0 0
121 0 0 0
15 0 0 0
37 0 0 0
58 0 0 0
59 0 0 0
69 0 0 0
72 0 0 0
73 0 0 0
93 0 0 0
108 0 0 0
16 0 0 0
30 0 0 0
104 0 0 0
105 0 0 0
109 0 0 0
34 0 0 0
50 0 0 0
53 0 0 0
54 0 0 0
