LAMMPS data file via write_data, version 22 Jul 2025, timestep = 326, units = metal

133 atoms
3 atom types

0 11.436528 xlo xhi
0 11.745825 ylo yhi
0 11.261292 zlo zhi
0 0 0 xy xz yz

Masses

1 63.55
2 63.55
3 63.55

Atoms # atomic

1 1 11.277125746146515 0.23243281510735667 2.5675455265032996 -1 0 0
69 1 1.209248270515323 1.5826830855264349 1.1389261897284997 0 0 0
94 1 2.631838430144876 2.786633504453812 2.797835292754703 0 0 0
95 1 11.203947545759128 3.2598281794463206 0.14328392031829199 -1 0 0
72 1 2.767778330714087 0.368572133791657 2.7137935260130965 0 0 0
98 1 5.382048203531497 2.908328178074364 3.020636168115953 0 0 0
106 1 4.144537799287752 1.782424163683726 1.2596081745644714 0 0 0
109 1 6.082024122762036 0.55198952934802 2.6362988482600422 0 0 0
8 1 10.504664659425096 2.5623192188849795 3.3702623875822204 0 0 0
9 1 7.53493870356985 2.0153026323579346 1.3163067223244675 0 0 0
12 1 8.810884943245615 0.8136899885327725 3.065277071167811 0 0 0
50 1 9.900836379183783 1.3449303581282497 0.7663415399697172 0 0 0
105 1 7.901699775229536 3.1799967095361845 3.4702382771797295 0 0 0
82 1 2.0768859719119335 7.483483490270778 2.8659679737093513 0 0 0
83 1 1.548138315106746 6.084223138444468 0.7490697158256474 0 0 0
88 1 2.566712916922272 5.143412260149255 2.763140346936353 0 0 0
89 1 2.1759552642584117 3.704987956229579 0.5988132635151194 0 0 0
123 1 4.52640357638253 7.755982164062291 3.2618675083520787 0 0 0
124 1 3.9180968362426616 6.463987340070938 1.174799351151165 0 0 0
26 1 7.030250455693457 8.0815126709654 3.563112366315398 0 0 0
27 1 6.349982645296906 6.815207436117679 1.5903286263065728 0 0 0
67 1 7.4107516571679035 5.649521194940645 3.6544892114271597 0 0 0
116 1 6.855599355314954 4.423984165216715 1.6526159603642703 0 0 0
129 1 4.990949606012496 5.370994015156932 3.170621543324433 0 0 0
130 1 4.458839521251228 4.135032169528546 1.135926167177242 0 0 0
2 1 9.875346461414379 5.1388595225802165 3.7009135131139104 0 0 0
3 1 0.2964013645372957 4.416090131494212 2.1979517212658592 1 0 0
43 1 11.167642023596999 6.950051196591866 2.3997387864095914 0 0 0
44 1 10.627035383140933 5.669139862585538 0.34920521604873755 0 0 0
63 1 9.46304413376063 7.85547306683727 3.982226427349728 0 0 0
64 1 8.810804435392702 6.4996636552144205 1.9069388561209302 0 0 0
76 1 0.3505780345226465 9.360801840897517 2.2616718447241144 0 0 0
77 1 10.852086486170146 8.112335383182998 0.3122432805313193 -1 0 0
112 1 1.6159121613292808 10.913268508608063 0.9098777506471257 0 0 0
118 1 1.9323027422715762 8.46018058349446 0.6660607433857991 0 0 0
132 1 2.9279818589015245 9.692368099910562 2.6230622963151693 0 0 0
15 1 4.312811402230725 11.149066509804829 1.1555111782071723 0 0 0
20 1 5.41191102800782 9.982403092462922 2.9901341914550423 0 0 0
21 1 4.445392293315186 8.750753482546328 1.0256333341208048 0 0 0
58 1 6.9059088815335805 9.181150571312163 1.2926926529884315 0 0 0
36 1 10.479018597975788 10.656928328158047 0.6097429659205815 0 0 0
39 1 10.176531209980158 10.273444747134416 3.809152004016254 0 0 0
40 1 9.25352576340249 8.99748610916053 1.8731576435477466 0 0 0
52 1 7.972955153115821 11.329722079512972 0.6959321646939743 0 0 0
57 1 7.816383062851928 10.407490830256785 3.2128338495004507 0 0 0
92 1 2.174701429864789 2.58514139848332 6.246452191211729 0 0 0
93 1 1.213757345336469 1.3646566715542954 4.238666516365822 0 0 0
97 1 2.3299112999856444 0.2139828881059244 6.149344486244088 0 0 0
128 1 3.561091696761902 3.986204563287554 4.706908827204926 0 0 0
133 1 11.188233319320961 11.67449888513748 5.713167513508314 -1 -1 0
71 1 4.856736469326601 0.4898384309531007 6.61550987796716 0 0 0
99 1 3.9201936348290736 1.5932553340904534 4.564282003627939 0 0 0
100 1 4.6161133304440645 2.8469856636103787 6.675080482721357 0 0 0
103 1 7.012486589376318 3.0383767118333727 7.019374889656395 0 0 0
104 1 6.412148536285593 1.785527388149137 4.928658568373169 0 0 0
108 1 7.2994219942886795 0.7112774790091082 7.03622333851991 0 0 0
6 1 9.37506959788108 3.205078524502066 7.542505993833975 0 0 0
7 1 8.833376441195083 2.042087730572027 5.364183759645225 0 0 0
11 1 9.676157869149469 0.8713041826188619 7.486129969361536 0 0 0
31 1 8.403211095388608 4.417260278410879 5.547859755066445 0 0 0
48 1 11.128261792001217 2.2983813260426733 5.889058787149781 0 0 0
81 1 0.7148645985413525 6.07187179232631 4.387177627093988 0 0 0
86 1 1.7866503876358564 4.975653556759424 6.34605447191123 0 0 0
87 1 1.0411971257191974 3.740084407739409 4.371225552261512 0 0 0
122 1 3.174492765890548 6.389146041236911 4.812956697781543 0 0 0
24 1 6.43994555293031 7.886799047129863 7.233978492729695 0 0 0
25 1 5.648139218252149 6.633987986927568 5.192313058910027 0 0 0
30 1 6.658905253119517 5.431914792422485 7.136482188172418 0 0 0
49 1 5.993163904126069 4.183980386207474 5.073082925068192 0 0 0
62 1 8.069267145359902 6.822562496209962 5.6572529129424645 0 0 0
127 1 4.236062051068535 5.234812314215658 6.722077193949677 0 0 0
32 1 9.096327303715695 5.611891140301553 7.599158240394049 0 0 0
42 1 10.485438994750702 7.012457772441323 6.0138779861509 0 0 0
46 1 10.769005213956593 4.636735623103978 5.937828617611932 0 0 0
61 1 8.876084681415616 8.047950135683658 7.663311306906961 0 0 0
74 1 1.2274480736780367 9.831310343111817 6.528793850891528 0 0 0
75 1 0.3934104860629611 8.468520911361352 4.497240902464756 0 0 0
80 1 1.4769496189953726 7.390039460971724 6.430141287095081 0 0 0
111 1 1.3363546425151356 10.678164956105908 4.156806085261025 0 0 0
117 1 2.8463736392507504 8.808411116744683 4.912488814376699 0 0 0
14 1 3.91074549222343 10.966224834598483 4.573561835905697 0 0 0
18 1 6.222209495614736 10.300218900735526 7.312471244770541 0 0 0
19 1 5.330922246379298 9.030175146797554 5.2923135233759195 0 0 0
56 1 7.827332068251051 9.235324188900824 5.581015151898943 0 0 0
115 1 3.719065407536934 10.10877056418357 6.934735444326392 0 0 0
121 1 3.9486143661806303 7.66702094858126 6.817392901104234 0 0 0
35 1 8.770333384897729 11.439236790431877 5.363401760697238 0 0 0
38 1 10.231941978984214 9.446807356283287 6.101664795770222 0 0 0
51 1 6.3589665925089 11.190518721103526 4.966658442906893 0 0 0
55 1 8.671692708167443 10.451227688731363 7.697408553998108 0 0 0
85 1 0.4014142895767395 3.5388532513518633 7.9036738016329116 0 0 0
90 1 1.5469937072160376 2.4021269496418634 9.849192653740998 0 0 0
91 1 0.7450693777726517 1.1505679104406967 7.80356877038372 0 0 0
96 1 0.44990792105507704 0.3119875250908469 10.335316822314285 0 0 0
101 1 3.2404586052061 1.4693361770224016 8.22699980747099 0 0 0
68 1 6.2541682734236685 3.1821190044406906 10.902680680247677 0 0 0
70 1 2.9701826130446727 0.5913565770651835 10.684101490987807 0 0 0
102 1 5.821750058113992 1.800761784158427 8.764614658648183 0 0 0
107 1 5.847970692966304 0.8446314229055344 11.114688475252544 0 0 0
131 1 3.9788063261990443 2.7135596871032592 10.270387275214617 0 0 0
4 1 9.292899069526118 3.8280276551807666 1.5365727305257486 0 0 1
5 1 8.20387214416628 2.006410297249288 10.100527247532352 0 0 0
10 1 9.483256869657918 11.688896629570312 9.88737702255359 0 -1 0
47 1 10.532190827501278 2.0738938129216637 9.430562681389095 0 0 0
79 1 0.08279240275060275 5.923606413387824 7.9641718482013735 0 0 0
84 1 1.0312974290148613 4.802221831224755 9.931293796025976 0 0 0
120 1 2.538441554922567 6.237505073700746 8.333784868487335 0 0 0
126 1 2.8308391704059264 3.8429011200399943 8.296727001410648 0 0 0
23 1 4.990799958407969 6.510883768469495 8.715221009868136 0 0 0
28 1 5.816553800546155 5.479090648779946 10.809547249614678 0 0 0
29 1 5.233631372612722 4.134843049546696 8.73306523226006 0 0 0
33 1 7.624793907278129 4.13716161712581 9.08000649270892 0 0 0
119 1 3.4178460746031174 7.508733665167717 10.299913896404851 0 0 0
125 1 3.4494199810925084 5.117960958319345 10.33251072185646 0 0 0
34 1 8.246775118913368 5.280831671983907 11.10101352551207 0 0 0
41 1 9.910995602844405 6.862696050689536 9.594970887829332 0 0 0
45 1 10.024461433980827 4.419604633468688 9.57943973766677 0 0 0
59 1 8.312767124459091 7.79710932340664 11.17757512714508 0 0 0
60 1 7.443743833126273 6.6131750319513944 9.165371200876608 0 0 0
73 1 0.7191379841422542 9.663228548897326 10.143820713806006 0 0 0
78 1 0.9450135282935865 7.210235055516825 9.943384784294915 0 0 0
110 1 2.1220622789906796 11.095680855364762 8.613864268324695 0 0 0
114 1 2.3113849729990372 8.683606393014378 8.442952496571502 0 0 0
13 1 4.648116409323797 11.41956103522483 8.996989950149722 0 0 0
16 1 5.78248274066802 10.225921241190933 10.763352141365266 0 0 0
17 1 4.802183033176468 8.964290235094163 8.805721027580956 0 0 0
22 1 5.874013821991839 7.799796957392039 10.661626449412784 0 0 0
54 1 7.331397406487678 9.129684192368527 9.269875297022725 0 0 0
65 1 7.184905338660103 11.590396706779362 9.324954124494592 0 0 0
113 1 3.2445928328523004 9.94427146987062 10.47331123977142 0 0 0
37 1 11.286787856936112 8.361655847966341 8.073425502485243 0 0 0
53 1 9.693890338777479 9.32953841590531 9.787078704003115 0 0 0
66 1 11.089336568623539 10.76937352652906 8.19388666051883 0 0 0

Velocities

1 0 0 0
69 0 0 0
94 0 0 0
95 0 0 0
72 0 0 0
98 0 0 0
106 0 0 0
109 0 0 0
8 0 0 0
9 0 0 0
12 0 0 0
50 0 0 0
105 0 0 0
82 0 0 0
83 0 0 0
88 0 0 0
89 0 0 0
123 0 0 0
124 0 0 0
26 0 0 0
27 0 0 0
67 0 0 0
116 0 0 0
129 0 0 0
130 0 0 0
2 0 0 0
3 0 0 0
43 0 0 0
44 0 0 0
63 0 0 0
64 0 0 0
76 0 0 0
77 0 0 0
112 0 0 0
118 0 0 0
132 0 0 0
15 0 0 0
20 0 0 0
21 0 0 0
58 0 0 0
36 0 0 0
39 0 0 0
40 0 0 0
52 0 0 0
57 0 0 0
92 0 0 0
93 0 0 0
97 0 0 0
128 0 0 0
133 0 0 0
71 0 0 0
99 0 0 0
100 0 0 0
103 0 0 0
104 0 0 0
108 0 0 0
6 0 0 0
7 0 0 0
11 0 0 0
31 0 0 0
48 0 0 0
81 0 0 0
86 0 0 0
87 0 0 0
122 0 0 0
24 0 0 0
25 0 0 0
30 0 0 0
49 0 0 0
62 0 0 0
127 0 0 0
32 0 0 0
42 0 0 0
46 0 0 0
61 0 0 0
74 0 0 0
75 0 0 0
80 0 0 0
111 0 0 0
117 0 0 0
14 0 0 0
18 0 0 0
19 0 0 0
56 0 0 0
115 0 0 0
121 0 0 0
35 0 0 0
38 0 0 0
51 0 0 0
55 0 0 0
85 0 0 0
90 0 0 0
91 0 0 0
96 0 0 0
101 0 0 0
68 0 0 0
70 0 0 0
102 0 0 0
107 0 0 0
131 0 0 0
4 0 0 0
5 0 0 0
10 0 0 0
47 0 0 0
79 0 0 0
84 0 0 0
120 0 0 0
126 0 0 0
23 0 0 0
28 0 0 0
29 0 0 0
33 0 0 0
119 0 0 0
125 0 0 0
34 0 0 0
41 0 0 0
45 0 0 0
59 0 0 0
60 0 0 0
73 0 0 0
78 0 0 0
110 0 0 0
114 0 0 0
13 0 0 0
16 0 0 0
17 0 0 0
22 0 0 0
54 0 0 0
65 0 0 0
113 0 0 0
37 0 0 0
53 0 0 0
66 0 0 0
