LAMMPS data file via write_data, version 22 Jul 2025, timestep = 263, units = metal

132 atoms
3 atom types

0 11.436528 xlo xhi
0 11.745825 ylo yhi
0 11.261292 zlo zhi
0 0 0 xy xz yz

Masses

1 63.55
2 63.55
3 63.55

Atoms # atomic

85 1 0.3960001821835989 3.8444374213709693 2.156434504033962 0 0 0
90 1 1.5965036470575318 2.237979520177579 3.7984427060848316 0 0 0
91 1 1.3396405662617663 1.665527029558543 1.2728302922848211 0 0 0
94 1 2.5771891146540034 0.002617769027791142 2.7920037487822404 0 0 0
100 1 2.867103382161943 3.414715840233733 1.9605605449871424 0 0 0
32 1 5.354802154896186 2.976765577902739 1.7698864551207523 0 0 0
97 1 5.081603919627858 11.322411071790604 2.6429280792398795 0 -1 0
102 1 6.581121876502109 1.3925022481875966 3.3944496483516304 0 0 0
103 1 3.825215354492196 1.2179009740198994 1.0642849639906913 0 0 0
130 1 4.0637022902786715 1.8142181547209013 3.5363077443654123 0 0 0
2 1 7.838855256761592 2.5272413866745893 1.6086498309685124 0 0 0
7 1 10.281686924822052 2.075971593319269 1.5210706113824695 0 0 0
8 1 6.30911895642637 0.7843481369920046 0.8806555193107173 0 0 0
11 1 7.529371799024198 10.872803644256877 2.4208317298517534 0 -1 0
45 1 10.259840674018987 4.154140215699662 0.007573342477690516 0 0 0
48 1 11.088809340353057 1.882565135592679 10.442420574193058 0 0 -1
79 1 0.9952037413234319 7.718246285567853 3.5475282296584014 0 0 0
80 1 10.88542315325351 6.038876967271679 2.927894118298668 -1 0 0
84 1 1.950788569644887 5.603215152301835 2.7803386681861215 0 0 0
120 1 1.9669823253774827 7.724959087970563 1.3044503630187136 0 0 0
125 1 2.847745190607888 5.4952267850163805 0.4790000190462871 0 0 0
25 1 5.9518400783760566 6.92513647964738 3.256255827965205 0 0 0
26 1 5.324590028712005 5.066912368491526 0.3098707956459079 0 0 0
30 1 6.880113146817621 4.737390259298669 2.434065831296539 0 0 0
119 1 3.5189094616647525 7.3464681750205205 3.4225467551345563 0 0 0
124 1 4.416934371153535 5.173036622556673 2.6062831094249717 0 0 0
31 1 9.364628534628846 4.3001901937331315 2.285789586388373 0 0 0
41 1 9.360300609270052 6.400560700532069 0.8064620515071881 0 0 0
62 1 8.399325135266515 6.481772992886067 3.078308956705167 0 0 0
63 1 7.796837404990321 4.6221365790666775 0.15090346144499897 0 0 0
69 1 0.0952893177717042 0.45279556004281407 2.987695424643776 0 1 0
70 1 2.2792039497475662 11.18178084672144 0.37798645572284817 0 0 0
75 1 10.915752896018493 8.184689565448652 1.464159752306243 -1 0 0
95 1 11.26343043129228 11.608263606296651 0.6019547920600984 -1 0 0
116 1 1.0465623995875952 9.944983021572048 2.1330984449408072 0 0 0
15 1 5.980854874893786 9.06752352418945 1.7795543724068383 0 0 0
21 1 4.423438189048604 7.27776881212704 1.1279665052248842 0 0 0
109 1 3.5350881282516 9.516735764217561 1.962368360695223 0 0 0
110 1 4.7478717094364455 10.7554269000619 0.1760591641075988 0 0 0
16 1 7.195067756718063 10.31125578809964 0.0045012830015725884 0 0 0
38 1 9.68623097212943 9.907424351213367 11.090132109556121 0 0 -1
52 1 8.449466047151747 8.6353481949809 1.6054419605323929 0 0 0
53 1 9.97926904537502 10.416456523552514 2.3212324011337095 0 0 0
58 1 6.891300647443111 6.8476214535056865 0.964242061118384 0 0 0
88 1 1.966323208664236 3.3650879949033987 6.455954758655746 0 0 0
89 1 0.49343292795232463 1.6507997611283571 5.955604247171129 0 0 0
93 1 1.9020517528297136 0.9251033479270675 7.8440285191793 0 0 0
129 1 2.9645924741146037 1.324462733825888 5.70199885159287 0 0 0
29 1 5.628639398200641 3.6203021014772423 4.258755503510933 0 0 0
67 1 6.957695436614165 2.4503104639688282 6.065415749574506 0 0 0
98 1 4.403484226402119 0.5047070087881417 7.599514036292684 0 0 0
101 1 5.375019944495649 0.9832444229624036 5.449702123293809 0 0 0
105 1 6.917384996941775 0.1084583638109506 7.2172475112001 0 0 0
128 1 4.456401716996097 2.988900847469586 6.30263735667802 0 0 0
5 1 9.229908945004052 1.813708092682207 5.866418295552093 0 0 0
6 1 8.988750558603202 0.8826426729965005 3.332479653428403 0 0 0
10 1 9.31729159963244 11.33195901885382 7.119319708361997 0 -1 0
33 1 8.12020112335832 3.2190818578331246 4.076790255993065 0 0 0
44 1 10.585496116759431 2.691358501828777 4.007247891399409 0 0 0
47 1 10.553010459717395 0.06900625946663973 5.104372355271882 0 0 0
73 1 1.3233124165094865 8.64128566395391 6.168400017027454 0 0 0
78 1 11.198623112501373 6.839839604792255 5.470197803388987 -1 0 0
82 1 0.9528999108953198 5.390827687594116 7.207627396491301 0 0 0
83 1 0.676095368857655 4.546680239964444 4.6414551353007765 0 0 0
118 1 2.2380004328259497 6.3578973069083915 5.310564330011564 0 0 0
123 1 3.1509452076221334 4.072944774058946 4.439180994193696 0 0 0
19 1 6.261126799392758 7.700085503462253 5.804063915797438 0 0 0
24 1 4.713732422297066 5.876881421309048 5.134700940265201 0 0 0
28 1 6.013622193847098 4.583038296949648 6.910600269036687 0 0 0
122 1 3.4914067053682816 5.040058935479733 7.084303853864424 0 0 0
40 1 9.654963686842855 5.020434430887543 4.788428863442248 0 0 0
43 1 10.82267866070678 3.6213245955143827 6.5548466189237615 0 0 0
56 1 8.72605549415862 7.27445206615253 5.63120880617741 0 0 0
61 1 7.184600848122828 5.44221350592889 4.9525743029646705 0 0 0
64 1 8.454498444100034 4.096170693878684 6.721018368240856 0 0 0
68 1 1.5257371374447886 11.451057861967262 4.9397640245227254 0 0 0
74 1 2.515823304237907 9.39672717022059 4.17203211374532 0 0 0
96 1 0.031962935713167835 9.783738375135371 4.322574260514581 0 0 0
107 1 2.867240007815357 10.460690626562805 6.856314502378283 0 0 0
108 1 3.979604528042077 11.0790812589007 4.778280767936209 0 0 0
13 1 5.344167428176359 10.01226250184332 6.620294743177756 0 0 0
14 1 6.6770734146929165 10.93675032161404 4.727647212612288 0 0 0
113 1 3.799277356801385 8.175409926518986 5.975077057124686 0 0 0
114 1 5.082590434557542 9.117626917898333 4.067276294920753 0 0 0
20 1 7.463586028129249 8.669408406938597 3.8743580617674374 0 0 0
37 1 10.279078537711383 9.08913328933717 6.325807844456902 0 0 0
50 1 7.792891930610161 9.49761073802423 6.51333418539101 0 0 0
51 1 8.958604563184249 10.325372840898421 4.5469076207718775 0 0 0
57 1 9.908623425094653 8.187551173100315 3.702429285003887 0 0 0
115 1 0.3977950882027 10.898879391918094 7.040284105509073 1 0 0
86 1 1.258871888418311 3.708176427212553 11.08237015221234 0 0 0
87 1 0.9034135442992307 3.140941328006965 8.644763889424478 0 0 0
92 1 2.185944961745583 1.5149249274345176 10.246099480769136 0 0 0
127 1 3.417653083031896 2.7438150048180465 8.479938057077309 0 0 0
65 1 6.226646384234878 2.8584106074670474 10.725103504680266 0 0 0
66 1 5.920214976972698 2.3124230071891936 8.27328648101208 0 0 0
99 1 4.685419207350796 1.0874254905362564 10.033475241231205 0 0 0
104 1 7.176026467011066 0.649969934279819 9.829795763989175 0 0 0
126 1 3.7491133289634386 3.29481823576805 10.913606246781226 0 0 0
3 1 8.686427172122915 2.4115851259705705 10.556922346564022 0 0 0
4 1 8.384863046603567 1.8811345550807197 8.132867687250526 0 0 0
9 1 8.807646881729461 0.33983791353396964 0.6322042623895799 0 0 1
46 1 10.759990725748228 1.2982555477413646 8.068866689873643 0 0 0
1 1 0.05771819115474338 7.564639989095434 8.007295827977305 0 0 0
71 1 0.7182291961371209 9.402635858619966 10.962052935812535 0 0 0
76 1 1.5989768795464219 7.1940643165493965 10.12741314211012 0 0 0
77 1 2.527230203543068 7.134656701638816 7.844867100644087 0 0 0
81 1 0.03074895972578669 5.42763144358887 9.485876614066107 0 0 0
111 1 3.1762126710758882 8.966676385728993 10.780118012358113 0 0 0
121 1 2.4755212465528644 4.954510671870619 9.303523745530693 0 0 0
131 1 4.057378386444521 6.74683554557679 9.94747539803442 0 0 0
17 1 5.626662719364224 8.538052999663785 10.602359330104273 0 0 0
22 1 6.540245368706699 6.324631554701183 9.792442903914951 0 0 0
23 1 7.522306713648483 6.283513529432454 7.5279727564491195 0 0 0
27 1 4.97381982195248 4.53468725176018 9.134149826288938 0 0 0
117 1 5.0468424536251515 6.725401355589395 7.694541713657432 0 0 0
34 1 7.457889800558786 4.109462350203578 8.971551765445355 0 0 0
35 1 10.570299837317876 7.6666424430612095 10.28864708855547 0 0 0
39 1 0.3892624847142274 5.9451932220336206 0.6596608103526879 1 0 1
42 1 9.9229045758418 3.6620492830546847 8.822474354732918 0 0 0
54 1 8.10623661802932 8.119295270528426 10.440544628081168 0 0 0
59 1 9.011798733682776 5.887844489326901 9.636605332716762 0 0 0
60 1 9.961812508679232 5.822757382041391 7.354218588027707 0 0 0
72 1 1.6037199709223862 9.310491754350945 8.663678386567202 0 0 0
106 1 3.147600279925019 11.052984088524225 9.354921966693633 0 0 0
112 1 4.0945162580236705 8.884611424082495 8.475609113204037 0 0 0
12 1 5.659232913422007 10.652751758323506 9.104762370010233 0 0 0
18 1 6.58846063820736 8.471488776776292 8.3475898995747 0 0 0
36 1 10.561264516180579 9.782001917460518 8.80689682852703 0 0 0
49 1 8.167502077455355 10.29634772446313 8.99780320769614 0 0 0
55 1 9.042367167126658 8.016846685249972 8.171977208951388 0 0 0
132 1 0.6285988739804267 11.482868463112098 9.568723671948312 1 0 0

Velocities

85 0 0 0
90 0 0 0
91 0 0 0
94 0 0 0
100 0 0 0
32 0 0 0
97 0 0 0
102 0 0 0
103 0 0 0
130 0 0 0
2 0 0 0
7 0 0 0
8 0 0 0
11 0 0 0
45 0 0 0
48 0 0 0
79 0 0 0
80 0 0 0
84 0 0 0
120 0 0 0
125 0 0 0
25 0 0 0
26 0 0 0
30 0 0 0
119 0 0 0
124 0 0 0
31 0 0 0
41 0 0 0
62 0 0 0
63 0 0 0
69 0 0 0
70 0 0 0
75 0 0 0
95 0 0 0
116 0 0 0
15 0 0 0
21 0 0 0
109 0 0 0
110 0 0 0
16 0 0 0
38 0 0 0
52 0 0 0
53 0 0 0
58 0 0 0
88 0 0 0
89 0 0 0
93 0 0 0
129 0 0 0
29 0 0 0
67 0 0 0
98 0 0 0
101 0 0 0
105 0 0 0
128 0 0 0
5 0 0 0
6 0 0 0
10 0 0 0
33 0 0 0
44 0 0 0
47 0 0 0
73 0 0 0
78 0 0 0
82 0 0 0
83 0 0 0
118 0 0 0
123 0 0 0
19 0 0 0
24 0 0 0
28 0 0 0
122 0 0 0
40 0 0 0
43 0 0 0
56 0 0 0
61 0 0 0
64 0 0 0
68 0 0 0
74 0 0 0
96 0 0 0
107 0 0 0
108 0 0 0
13 0 0 0
14 0 0 0
113 0 0 0
114 0 0 0
20 0 0 0
37 0 0 0
50 0 0 0
51 0 0 0
57 0 0 0
115 0 0 0
86 0 0 0
87 0 0 0
92 0 0 0
127 0 0 0
65 0 0 0
66 0 0 0
99 0 0 0
104 0 0 0
126 0 0 0
3 0 0 0
4 0 0 0
9 0 0 0
46 0 0 0
1 0 0 0
71 0 0 0
76 0 0 0
77 0 0 0
81 0 0 0
111 0 0 0
121 0 0 0
131 0 0 0
17 0 0 0
22 0 0 0
23 0 0 0
27 0 0 0
117 0 0 0
34 0 0 0
35 0 0 0
39 0 0 0
42 0 0 0
54 0 0 0
59 0 0 0
60 0 0 0
72 0 0 0
106 0 0 0
112 0 0 0
12 0 0 0
18 0 0 0
36 0 0 0
49 0 0 0
55 0 0 0
132 0 0 0
