LAMMPS data file via write_data, version 22 Jul 2025, timestep = 228, units = metal

123 atoms
3 atom types

0 11.436528 xlo xhi
0 11.745825 ylo yhi
0 11.261292 zlo zhi
0 0 0 xy xz yz

Masses

1 63.55
2 63.55
3 63.55

Atoms # atomic

66 1 0.8798289751265597 2.1344221947189044 2.5233205346951584 0 0 0
67 1 3.1540483262346073 3.1530849837834816 0.33027336550610537 0 0 0
76 1 0.6535613584099088 3.283756116345356 0.0810742694552762 0 0 0
78 1 4.4234339261266955 0.256548616327889 2.0273420187064017 0 0 0
16 1 7.157801830625601 2.5136065783497012 2.277768097691487 0 0 0
70 1 6.009609767480861 1.3728113238539652 0.37013205198355065 0 0 0
105 1 4.736373965511049 2.7033175524063022 1.9986238312261633 0 0 0
106 1 5.971101236660818 3.7927390223129267 0.25264971317420726 0 0 0
109 1 8.479933904827517 0.9826304852845593 0.7516448181488341 0 0 0
17 1 8.492230021107124 3.458700732386071 0.557571245475441 0 0 0
20 1 9.503462102374286 11.543727899035906 2.6310787579384742 0 -1 0
51 1 9.84062446652679 2.33907046474889 2.3233248865540523 0 0 0
52 1 11.131854104942594 0.7440086914260228 0.7695360242603984 0 0 0
71 1 1.6281336078545015 7.961422976704947 0.6056047439705203 0 0 0
73 1 0.9684443028972487 4.59950242557724 2.2665164973371503 0 0 0
93 1 2.50138047567856 5.5696512553885436 0.4868581252652309 0 0 0
119 1 2.5057504951891474 6.680157923075498 2.804182052911249 0 0 0
120 1 4.075441461528336 7.771088424357485 1.037101343613107 0 0 0
122 1 3.284228297138737 4.322835840987231 3.02749762856766 0 0 0
6 1 7.376280647945949 6.245150907765576 3.961709149755029 0 0 0
12 1 7.38630555815972 5.251639737344744 1.6840557798305096 0 0 0
95 1 4.8992478217746065 6.485441367605394 3.575571180047212 0 0 0
96 1 6.490158855376996 7.507458732235326 1.7244793571431642 0 0 0
100 1 5.858603903203839 4.213048566512453 3.5514545830780677 0 0 0
101 1 4.791844412219342 5.462481652138508 1.3758920236408692 0 0 0
7 1 8.985111760084108 7.229108042854096 2.084795964966996 0 0 0
11 1 8.421316710808213 3.9375186955204704 3.785034917830989 0 0 0
42 1 9.867743656852944 5.965595655982211 4.211125308702799 0 0 0
43 1 0.025521986348476758 6.949502531057382 2.415908444086153 1 0 0
47 1 10.876744023684363 3.6513585823925445 4.156907182769828 0 0 0
48 1 9.990397728651779 4.897568842297828 1.8449874890452627 0 0 0
112 1 0.5916095529965393 11.375668533748305 2.882183674958644 0 0 0
115 1 2.9989813109158385 10.037284677149687 1.2636386714356413 0 0 0
2 1 8.033932869839738 9.5541575000607 2.064490422922098 0 0 0
30 1 5.502102624705132 9.76825977374748 1.674630546368526 0 0 0
59 1 6.9051924557894635 0.003242838906404655 2.378223421495477 0 1 0
38 1 10.509694851350568 9.30177005707467 2.4522903560779223 0 0 0
87 1 11.31689855495872 8.0315011288194 4.7374824453467745 0 0 0
64 1 0.212081444451582 2.425855962703038 6.46219760350018 0 0 0
69 1 3.074220023546154 1.7203242391196185 3.4325042926633165 0 0 0
75 1 1.7812506895010267 3.3417555379953545 4.767604933154986 0 0 0
77 1 1.5191353609065554 0.7912366838852557 5.089599706799675 0 0 0
103 1 2.5790808113375334 2.1251496017004015 7.087555983278937 0 0 0
14 1 5.079915925563815 1.9043184630732732 7.33512641738896 0 0 0
65 1 4.222691490906863 3.1373641864639774 5.2635120559342665 0 0 0
104 1 6.762918346232993 2.9447142945325924 5.587250662960516 0 0 0
108 1 5.587136894260957 1.5004888543623458 3.9554797560594968 0 0 0
1 1 10.065473461172672 1.476822091477809 8.091001182031281 0 0 0
15 1 9.250360466919537 2.7087905480170114 5.944832400755991 0 0 0
19 1 8.148346432886724 1.320617117380062 4.1871549502216405 0 0 0
50 1 7.607783039121621 1.6847365487054307 7.617160977519808 0 0 0
54 1 10.630186281988095 1.1355270431308244 4.475493508887817 0 0 0
72 1 0.901686018162378 5.707759721673015 4.611457475039078 0 0 0
94 1 3.2941595396780667 5.463705604523209 5.268445169867354 0 0 0
118 1 2.3447476787549912 7.773568374058117 5.175780724042809 0 0 0
5 1 7.2050503999494575 7.337828571785322 6.222483456392867 0 0 0
63 1 4.753010182507571 7.555852486775971 5.801830839936118 0 0 0
99 1 5.728639224657342 5.264099106276046 5.81634521412431 0 0 0
10 1 8.222620761561476 5.022128609801084 6.073013668854465 0 0 0
41 1 9.742457342778165 7.107195775676308 6.4923847422726855 0 0 0
46 1 10.706310526704902 4.789217769439851 6.447919857109902 0 0 0
23 1 3.918531590187363 0.5454057862783724 5.60831889009489 0 1 0
24 1 2.883829903364934 10.974853914961383 3.650487440752843 0 0 0
27 1 3.708321207888379 9.821333159652276 5.823093096913356 0 0 0
28 1 3.9360135844590753 8.73966699663637 3.4274720372974707 0 0 0
111 1 11.36605197138387 11.62193059660414 6.796057505505347 -1 0 0
113 1 1.2953976466367196 10.052545122460288 5.354234763430429 0 0 0
114 1 1.4638666213656268 8.984832921158644 2.97632267138947 0 0 0
29 1 6.398471297691714 8.539237425594866 3.9633615331466854 0 0 0
31 1 6.1641437784069115 9.585608865443017 6.233591909420359 0 0 0
57 1 6.430437020492158 0.29851533076749326 5.965278460626389 0 1 0
58 1 5.325691095092183 10.759663090027278 4.083770075954198 0 0 0
33 1 7.838323654262572 10.566119840850012 4.430616252593366 0 0 0
36 1 8.681160294150656 9.34188591495667 6.601357598758284 0 0 0
37 1 8.870979143574639 8.303015637324853 4.31704125885595 0 0 0
82 1 8.95191106768748 0.10748445059323697 6.2753859131360885 0 1 0
83 1 10.349662312248073 10.365014658185407 4.783264774389778 0 0 0
86 1 11.161769459177934 9.106797771218917 7.133859076893337 0 0 0
68 1 3.28856041814842 0.9314923176077982 9.310910825488897 0 0 0
74 1 2.4266586914222077 3.306529330986826 9.280138166101873 0 0 0
91 1 4.887119304817189 2.8192811710036993 9.60642530883468 0 0 0
18 1 8.441662206006368 0.38480034743917413 9.694195369205742 0 0 0
102 1 7.459114870361959 2.5572835608717517 9.860613326329535 0 0 0
107 1 5.959357512690873 0.6306220492098847 9.32511401085787 0 0 0
13 1 10.040193407878139 2.108521305875555 10.395876719402239 0 0 0
49 1 0.07618875572993737 3.5630703485177655 8.677664620105013 1 0 0
53 1 0.8293645073034985 1.2377063574594205 9.513333241128834 1 0 0
62 1 3.295013636973681 7.477616413339588 9.932639798399657 0 0 0
92 1 3.196862807155743 6.577767117117969 7.563109203576835 0 0 0
97 1 1.6290654637622326 5.629801181681157 9.33133897184857 0 0 0
116 1 0.7237513914005569 8.022972749003918 9.47026248738675 0 0 0
117 1 0.7952884445434953 6.8555266898723595 6.943842646216759 0 0 0
121 1 1.6929856646372414 4.52208330793225 6.996310163867398 0 0 0
3 1 5.961743995386028 6.819226963811581 10.66844940801071 0 0 0
4 1 5.652150692321872 6.338177926993308 8.159071264417221 0 0 0
8 1 4.222704194242783 5.147480152576537 9.966738953178366 0 0 0
9 1 6.549747440558374 3.9879241666145604 7.873257367477906 0 0 0
44 1 7.341008083835303 4.952993857070924 9.991809027959553 0 0 0
98 1 4.096576613691879 4.249755977617725 7.5576883313375385 0 0 0
39 1 8.899371399544197 6.455459509604861 11.012791039204457 0 0 0
40 1 8.235583193720004 6.287028077097958 8.270817619531709 0 0 0
45 1 9.03683926471213 3.826319476793205 8.212647482258783 0 0 0
88 1 0.1195538621092218 6.007507631369596 0.07357527086994264 1 0 1
89 1 10.676099148808433 6.078013606767998 8.69970114324293 0 0 0
90 1 10.02209300238659 4.4768101722620655 10.365903226235824 0 0 0
22 1 2.238112310369543 11.38431259288446 7.452367812169422 0 0 0
25 1 2.8063676714466768 9.935563099241955 9.849850669649797 0 0 0
26 1 2.1646973696576195 8.900108530973142 7.602316824058627 0 0 0
110 1 2.2350745877668774 0.7535620749812529 0.6294136294661332 0 1 1
21 1 4.437941129479981 11.35334455126711 10.974510055945379 0 0 0
32 1 5.276292956655892 9.150862282878995 10.404591547985458 0 0 0
34 1 7.840773615036595 8.601291098376366 11.020188027193385 0 0 0
35 1 7.042384101902428 8.433723674978006 8.62092366403584 0 0 0
55 1 6.965483411273504 10.850145284690726 11.191498248416128 0 0 0
56 1 4.658139046328778 11.070596971341532 7.798023602910605 0 0 0
60 1 4.595497418934688 8.64542312621003 8.073045440146547 0 0 0
61 1 7.242329121623409 10.799047181988833 8.04850640881544 0 0 0
79 1 0.5291882717987009 10.534479109501614 9.2219605603446 1 0 0
80 1 0.6774834541190148 10.25456942652478 0.4786312735896943 1 0 1
81 1 9.716839878662352 10.64099775203976 8.441067976346947 0 0 0
84 1 10.528629121202629 8.262662601872648 0.19711575875324647 0 0 1
85 1 9.5720481041294 8.29271933900447 9.082489194763358 0 0 0
123 1 9.593779551935388 10.534249529191664 0.02643054899681719 0 0 1

Velocities

66 0 0 0
67 0 0 0
76 0 0 0
78 0 0 0
16 0 0 0
70 0 0 0
105 0 0 0
106 0 0 0
109 0 0 0
17 0 0 0
20 0 0 0
51 0 0 0
52 0 0 0
71 0 0 0
73 0 0 0
93 0 0 0
119 0 0 0
120 0 0 0
122 0 0 0
6 0 0 0
12 0 0 0
95 0 0 0
96 0 0 0
100 0 0 0
101 0 0 0
7 0 0 0
11 0 0 0
42 0 0 0
43 0 0 0
47 0 0 0
48 0 0 0
112 0 0 0
115 0 0 0
2 0 0 0
30 0 0 0
59 0 0 0
38 0 0 0
87 0 0 0
64 0 0 0
69 0 0 0
75 0 0 0
77 0 0 0
103 0 0 0
14 0 0 0
65 0 0 0
104 0 0 0
108 0 0 0
1 0 0 0
15 0 0 0
19 0 0 0
50 0 0 0
54 0 0 0
72 0 0 0
94 0 0 0
118 0 0 0
5 0 0 0
63 0 0 0
99 0 0 0
10 0 0 0
41 0 0 0
46 0 0 0
23 0 0 0
24 0 0 0
27 0 0 0
28 0 0 0
111 0 0 0
113 0 0 0
114 0 0 0
29 0 0 0
31 0 0 0
57 0 0 0
58 0 0 0
33 0 0 0
36 0 0 0
37 0 0 0
82 0 0 0
83 0 0 0
86 0 0 0
68 0 0 0
74 0 0 0
91 0 0 0
18 0 0 0
102 0 0 0
107 0 0 0
13 0 0 0
49 0 0 0
53 0 0 0
62 0 0 0
92 0 0 0
97 0 0 0
116 0 0 0
117 0 0 0
121 0 0 0
3 0 0 0
4 0 0 0
8 0 0 0
9 0 0 0
44 0 0 0
98 0 0 0
39 0 0 0
40 0 0 0
45 0 0 0
88 0 0 0
89 0 0 0
90 0 0 0
22 0 0 0
25 0 0 0
26 0 0 0
110 0 0 0
21 0 0 0
32 0 0 0
34 0 0 0
35 0 0 0
55 0 0 0
56 0 0 0
60 0 0 0
61 0 0 0
79 0 0 0
80 0 0 0
81 0 0 0
84 0 0 0
85 0 0 0
123 0 0 0
