LAMMPS data file via write_data, version 22 Jul 2025, timestep = 303, units = metal

121 atoms
3 atom types

0 11.436528 xlo xhi
0 11.745825 ylo yhi
0 11.261292 zlo zhi
0 0 0 xy xz yz

Masses

1 63.55
2 63.55
3 63.55

Atoms # atomic

66 1 3.446821032734936 1.5004183070704895 3.5575316382343423 0 0 0
67 1 2.864486125084933 0.9343400074817417 0.40981482912157474 0 0 0
84 1 11.274149391403398 2.9324174377664347 3.6947519218946385 -1 0 0
85 1 1.3564319661681472 1.732256203861168 2.1445856597025377 0 0 0
90 1 2.2481354571648984 3.451465669458931 0.31019826888134433 0 0 0
7 1 6.751197835212458 3.263379479016714 1.4390042419408404 0 0 0
95 1 4.292985591121353 2.767675483478569 1.4967507464583367 0 0 0
100 1 5.929473334757477 2.1428450448228977 3.5202615186920423 0 0 0
101 1 5.101890836914229 0.4376911506091431 1.8840114910298096 0 0 0
12 1 7.739664157475272 1.5557906849459497 5.1551575503236045 0 0 0
13 1 7.696425290987293 0.7211735745605373 2.415947403727558 0 0 0
41 1 9.384304153903555 3.741222497114343 1.2379407947577208 0 0 0
46 1 8.57877058830991 2.856421977890703 3.272399786503092 0 0 0
47 1 10.256579606412844 1.5132723691009184 1.7850675124389834 0 0 0
78 1 11.231627763611822 6.8469839144618545 1.9013597594737752 -1 0 0
81 1 0.3935157400514787 4.241939423647815 1.6549822744061815 0 0 0
91 1 2.665359844311198 3.8813937236176588 2.9609732666786863 0 0 0
115 1 2.2998992201956185 7.127836925412769 2.2163275873687898 0 0 0
116 1 1.4313704880245854 6.042265880130735 0.12362129368584082 0 0 0
14 1 6.153882226163937 6.194467043795648 0.8807870258012177 0 0 0
27 1 4.666007965945267 7.377647005511875 2.543293529119739 0 0 0
59 1 3.662660127451119 5.401622193310578 1.0942604821685573 0 0 0
94 1 5.241427389216846 4.680979673683435 2.883723049746918 0 0 0
6 1 7.672409323903372 5.19352347391512 2.8229774125827087 0 0 0
29 1 7.027373417953948 7.780800547929811 2.6690820253790126 0 0 0
34 1 9.33055577931163 7.640012423591416 3.3340295930023776 0 0 0
35 1 8.685455305930088 6.565245338692892 1.196302606254228 0 0 0
40 1 10.126113093312702 5.13337331330643 3.364672862022464 0 0 0
70 1 0.4482636472543582 11.472213842354787 0.32480219969161206 0 0 0
76 1 2.4383150709450625 10.523406832606316 1.6435757146097634 0 0 0
88 1 10.38742206698258 9.232016374890463 1.7683366000686793 -1 0 0
110 1 0.9685628728343125 8.60833098405019 0.4488729713114875 0 0 0
16 1 6.871564340487393 11.221587628825754 0.27448577291439125 0 0 0
22 1 3.5237048237814794 8.53706905729736 0.5330678817461283 0 0 0
56 1 8.006932227749845 8.993624850727791 0.8611796130710913 0 0 0
104 1 4.424735250174484 10.94992126942718 10.994772986131876 0 0 -1
109 1 5.544881159191029 9.752845859456928 1.928534783783586 0 0 0
21 1 8.12566320785917 10.061233289938352 3.063796682344779 0 0 0
50 1 9.2826098187668 11.16319918034015 0.9649406928588168 0 0 0
55 1 9.865713885404604 0.7298098616042851 4.091736283955667 0 1 0
121 1 9.993440919964737 7.985644700580184 11.018885514476226 0 0 -1
64 1 3.60946445434887 2.1951974221866353 7.061017232688403 0 0 0
65 1 1.2996100526767913 0.4800054562380408 4.471113215865231 0 0 0
83 1 11.089000950617596 2.0881246215400906 5.974497576546862 -1 0 0
92 1 1.961084107528761 2.8165058265851086 5.167523418018393 0 0 0
5 1 6.93884306559468 4.041534245490168 4.855700065553701 0 0 0
11 1 6.887040992778824 0.1569332700070836 7.018509201880201 0 0 0
93 1 4.446539775099466 3.4564110881649395 4.96510354461884 0 0 0
98 1 6.175406895411526 2.674822058881983 6.769266012625302 0 0 0
99 1 4.871673480442323 0.8231451090178367 5.579772525153011 0 0 0
10 1 8.72430885806713 1.9890622104021776 7.426677287234175 0 0 0
39 1 9.3911961682937 3.687762328809968 5.412549267925304 0 0 0
44 1 10.99567317150829 1.5413979566359337 8.331662179854398 0 0 0
45 1 10.965706602162394 11.37782152713752 6.081727079729128 0 -1 0
1 1 11.181700501787201 7.317825433600502 4.8494335464609435 -1 0 0
77 1 1.9858696243712586 6.959542542248643 5.868989704991885 0 0 0
80 1 0.3240714513753179 4.658238588729905 5.730858614851594 0 0 0
114 1 1.167452518587688 5.624039222064757 3.713797561925362 0 0 0
119 1 3.0068106269589525 4.699325374945947 6.486676657970139 0 0 0
26 1 3.654935858187461 5.915947951958239 4.345562695315065 0 0 0
30 1 6.188465313013219 6.4663320105463304 4.495776990652995 0 0 0
62 1 5.569744198056995 5.326419902241509 6.5485811174100945 0 0 0
113 1 4.715037573041367 7.635924370871671 6.090092740947427 0 0 0
4 1 7.91414231052925 4.432531801125551 7.2390105635460555 0 0 0
25 1 7.698336661549831 6.931404722228245 7.17793272161674 0 0 0
31 1 10.251807212457743 6.342228861062599 6.9634899186990715 0 0 0
33 1 8.608390483199722 6.025989910307942 5.10428351196511 0 0 0
38 1 10.46621422239456 3.95497467891207 7.717685610034009 0 0 0
69 1 0.0996077664558183 11.259072510089844 2.655465231107111 0 0 0
73 1 1.0284772844781673 9.473725495928457 5.5250407517153155 0 0 0
74 1 0.9955798716897329 8.934936990071265 3.1057678098316446 0 0 0
87 1 10.32169877837976 9.802673608393716 4.187882490696427 -1 0 0
20 1 5.582604365442672 9.052016690995451 4.319220254508183 0 0 0
28 1 6.346671910070945 11.353645291457212 4.164565839852216 0 0 0
103 1 3.8985137721262335 10.810506557813508 3.604092390505592 0 0 0
107 1 5.1896168933659945 10.070228692374645 6.669722875954192 0 0 0
108 1 3.1294591989949585 8.544274420698347 4.3233088281396075 0 0 0
19 1 7.6033369944339055 9.495684930971674 7.445525485379025 0 0 0
49 1 8.495027703845166 10.895781341344223 5.492772691156489 0 0 0
53 1 9.933023016051639 8.960904739159608 6.4067069353852695 0 0 0
54 1 7.804529691374622 8.468079133458914 5.135551395266969 0 0 0
63 1 1.5966148742731638 0.8873658980245736 6.934564244870135 0 0 0
75 1 3.4163233529107284 2.364105687691686 9.687303498344404 0 0 0
82 1 1.5171646014007996 0.8138271180893354 9.5230475846393 0 0 0
118 1 1.508072843586329 3.170565402733085 7.8726761556622264 0 0 0
3 1 6.993012735047057 3.065713577785902 9.21658203052074 0 0 0
9 1 7.679636511696391 0.658849009352625 9.337590547928333 0 0 0
96 1 5.646497445118995 1.6153747315225098 10.96868121926957 0 0 0
97 1 5.315000673767626 1.2183615664156098 8.58522336757971 0 0 0
120 1 4.68615792261029 3.957937845714653 8.335785363209682 0 0 0
8 1 8.216177352026328 1.7423075610226584 0.20979570039525683 0 0 1
37 1 9.490329944075093 3.103831530517859 9.840700036333635 0 0 0
42 1 0.11309881578197417 2.2172471105076124 11.119265600522898 1 0 0
43 1 9.988265495405042 0.4469836921459721 10.182684223590726 0 0 0
79 1 0.4516234545803312 4.211947010156236 9.797216868569553 0 0 0
89 1 2.115888365521736 7.67333527647623 9.58199713960647 0 0 0
111 1 4.0361643636089894 9.107863166122637 9.313672525176704 0 0 0
112 1 1.229994820964814 5.687899369312208 7.851452359319674 0 0 0
117 1 2.855673270650971 4.923627873867001 9.657332571046057 0 0 0
23 1 4.516040360538393 6.715220525699491 10.342321450471244 0 0 0
24 1 3.7378675310362706 6.545426937659303 8.000582863857048 0 0 0
58 1 6.385573317625516 5.585705946687337 8.982393207809608 0 0 0
61 1 5.169753699640316 4.147392994148353 10.79225199281833 0 0 0
2 1 7.751865806156336 4.717342591761873 10.943645398798543 0 0 0
32 1 9.085909501132855 5.607302673709452 9.063760727706553 0 0 0
36 1 10.367023818619584 5.421713148167792 11.2072432522833 0 0 0
57 1 7.6642560746572554 7.307277791488062 10.202680956538703 0 0 0
60 1 11.303463003430615 6.744906563692853 9.469808313033651 0 0 0
68 1 0.9935642804753669 10.533381045295226 7.952281113334498 0 0 0
71 1 3.4737237619489525 11.376080499854233 8.314401318076833 0 0 0
72 1 0.49267527506464465 8.14855248156179 7.601717196614133 0 0 0
86 1 2.115208335389925 10.242990128224108 10.247254507185888 0 0 0
15 1 6.012626200187803 10.572235298289689 9.079402694287218 0 0 0
18 1 5.882789700681175 7.974001889768985 8.378237452073952 0 0 0
102 1 2.991049119314386 10.950563252968962 5.84450275638709 0 0 0
105 1 5.882904815539514 8.782259855367844 10.934508548333065 0 0 0
106 1 2.8669858109477486 8.900175233645816 7.224234824753253 0 0 0
17 1 8.376594461971264 9.980588513491409 9.921205041670355 0 0 0
48 1 9.467977108848903 11.121718482070548 7.961787290367027 0 0 0
51 1 11.007487008005064 9.839544966698599 9.80585422320652 0 0 0
52 1 9.426630444580734 8.158087357305309 8.60607946186964 0 0 0

Velocities

66 0 0 0
67 0 0 0
84 0 0 0
85 0 0 0
90 0 0 0
7 0 0 0
95 0 0 0
100 0 0 0
101 0 0 0
12 0 0 0
13 0 0 0
41 0 0 0
46 0 0 0
47 0 0 0
78 0 0 0
81 0 0 0
91 0 0 0
115 0 0 0
116 0 0 0
14 0 0 0
27 0 0 0
59 0 0 0
94 0 0 0
6 0 0 0
29 0 0 0
34 0 0 0
35 0 0 0
40 0 0 0
70 0 0 0
76 0 0 0
88 0 0 0
110 0 0 0
16 0 0 0
22 0 0 0
56 0 0 0
104 0 0 0
109 0 0 0
21 0 0 0
50 0 0 0
55 0 0 0
121 0 0 0
64 0 0 0
65 0 0 0
83 0 0 0
92 0 0 0
5 0 0 0
11 0 0 0
93 0 0 0
98 0 0 0
99 0 0 0
10 0 0 0
39 0 0 0
44 0 0 0
45 0 0 0
1 0 0 0
77 0 0 0
80 0 0 0
114 0 0 0
119 0 0 0
26 0 0 0
30 0 0 0
62 0 0 0
113 0 0 0
4 0 0 0
25 0 0 0
31 0 0 0
33 0 0 0
38 0 0 0
69 0 0 0
73 0 0 0
74 0 0 0
87 0 0 0
20 0 0 0
28 0 0 0
103 0 0 0
107 0 0 0
108 0 0 0
19 0 0 0
49 0 0 0
53 0 0 0
54 0 0 0
63 0 0 0
75 0 0 0
82 0 0 0
118 0 0 0
3 0 0 0
9 0 0 0
96 0 0 0
97 0 0 0
120 0 0 0
8 0 0 0
37 0 0 0
42 0 0 0
43 0 0 0
79 0 0 0
89 0 0 0
111 0 0 0
112 0 0 0
117 0 0 0
23 0 0 0
24 0 0 0
58 0 0 0
61 0 0 0
2 0 0 0
32 0 0 0
36 0 0 0
57 0 0 0
60 0 0 0
68 0 0 0
71 0 0 0
72 0 0 0
86 0 0 0
15 0 0 0
18 0 0 0
102 0 0 0
105 0 0 0
106 0 0 0
17 0 0 0
48 0 0 0
51 0 0 0
52 0 0 0
