LAMMPS data file via write_data, version 22 Jul 2025, timestep = 266, units = metal

118 atoms
3 atom types

0 11.436528 xlo xhi
0 11.745825 ylo yhi
0 11.261292 zlo zhi
0 0 0 xy xz yz

Masses

1 63.55
2 63.55
3 63.55

Atoms # atomic

1 1 2.56308689255473 0.8938509959922799 3.209331877389165 0 0 0
61 1 3.635651178250019 2.486803574302648 1.0498366070910419 0 0 0
81 1 0.7764378173874733 2.402123020273842 3.912568087583589 0 0 0
86 1 1.1372426578066852 2.062907807282418 1.4929615086281294 0 0 0
116 1 2.9042962064463893 3.435496090763142 3.199030225276558 0 0 0
62 1 3.863021330946159 11.704350557665293 5.117846239825951 0 -1 0
91 1 4.933557470863811 1.3584988394709498 3.235748178926382 0 0 0
96 1 5.046939914351519 0.5016031975272176 0.6491544613296111 0 0 0
97 1 8.047325182851276 0.9496486741375966 3.605777034392317 0 0 0
5 1 8.19244035872305 3.33332142973973 3.1885336796374664 0 0 0
10 1 6.716364062553393 2.0009940293121353 1.6483104240454336 0 0 0
11 1 10.294342022635142 1.417693721042336 2.702542653688495 0 0 0
45 1 8.98522476144764 2.6138258199516247 0.8785278254074912 0 0 0
77 1 0.8687106054087571 4.859971214548916 4.384184827441129 0 0 0
78 1 11.122403671432165 6.310352237525487 2.599053646076358 -1 0 0
82 1 1.4960754510639638 4.5373769918035975 1.3281407993011412 0 0 0
112 1 2.8687123981923595 5.884548422056722 2.9036048342947804 0 0 0
43 1 5.299266736131651 6.299540110916262 2.5313346250242943 0 0 0
58 1 6.8811679492023705 6.785337664740035 0.6572988069671576 0 0 0
90 1 4.018200059734975 4.9141168630493155 0.6396929915073806 0 0 0
113 1 3.842208692093359 7.381449156199891 0.8428165395286694 0 0 0
2 1 8.581619559307041 5.103565606801669 1.4718619338188543 0 0 0
6 1 10.720552702119573 3.841471481282209 2.363432786752502 0 0 0
27 1 6.84403061336588 5.248672313227435 4.100814765304381 0 0 0
44 1 9.431048413865478 5.307852026653601 4.017369024941131 0 0 0
92 1 5.3415368576075695 3.8255860512606032 2.5865623536136346 0 0 0
65 1 0.6848203492121288 11.257188464806362 2.465869867262195 0 0 0
69 1 11.239646093100653 8.878404792396685 1.8418225910853485 -1 0 0
70 1 0.8468036283923934 10.245012619026621 11.143586467011625 0 0 -1
105 1 2.285844102058067 9.278031294032493 1.7185733318389178 0 0 0
14 1 6.514084333456517 11.170382818890133 2.498138966582351 0 0 0
19 1 5.5656854869032 8.853008766670461 1.757625415384935 0 0 0
20 1 6.558664952241174 10.430020372139033 11.217315501839073 0 0 -1
52 1 7.971734745960855 9.272271758215155 1.7445582969041236 0 0 0
100 1 4.057710283824241 10.759719644429733 2.5551907245609793 0 0 0
33 1 10.791993376163429 0.5737778710070933 0.4249362841805168 0 1 0
37 1 9.389449546916564 7.435153290127645 1.0684198944474246 0 0 0
47 1 8.305951035416129 0.22504371064563847 0.8141315284538373 0 1 0
53 1 9.795596033408678 10.034258119079178 0.012557570143473334 0 0 0
84 1 1.4226450403387372 0.865653794577756 7.735292339268182 0 0 0
85 1 3.0409091154311465 2.3123251533178664 5.472919781914378 0 0 0
114 1 2.7433321762238494 3.0887739190616537 7.948956841892563 0 0 0
118 1 1.090252856034477 0.328797788390858 5.26396761046383 0 0 0
59 1 5.112605265865841 2.975059672172122 6.94744002294893 0 0 0
73 1 6.354779039318579 0.19540585622529083 5.2384316524104335 0 0 0
89 1 3.9244835462129464 0.8439636677311554 7.525488915838182 0 0 0
94 1 6.552979630435452 0.8573498011812416 7.853390882313256 0 0 0
8 1 10.412985970776273 1.0303384225542598 7.212799993683142 0 0 0
9 1 10.009730614653469 2.7566145932098847 4.9005389331570575 0 0 0
57 1 9.480571034492643 3.1506285709382515 7.752676565400326 0 0 0
95 1 8.183588851792015 1.5885521400465654 6.154902904478702 0 0 0
74 1 1.3098166213815645 5.2045995593436745 7.3320640698629775 0 0 0
80 1 0.6892432018636627 2.9034136702463744 6.298613143708474 0 0 0
87 1 1.3456508835318466 7.780965128808078 3.6260482142919694 0 0 0
108 1 2.635173945921154 6.437239475538369 5.42267677401176 0 0 0
23 1 5.262973937786844 6.901481578061997 5.196173172439266 0 0 0
24 1 7.004530583916014 7.814254662184739 3.62534298601565 0 0 0
60 1 6.272608837167962 2.7320454372744254 4.761357335743387 0 0 0
109 1 3.8112320599728524 8.132461658778599 3.458521285284899 0 0 0
115 1 4.388669203123478 4.546519745967664 4.920045819169948 0 0 0
4 1 8.10694539782861 4.03538226976138 5.833931917402652 0 0 0
30 1 9.446771719241228 8.051374720007683 3.563759280717731 0 0 0
40 1 10.488765960685924 4.892235046825242 6.329842107397996 0 0 0
41 1 10.998401499069448 6.960467488507096 5.182162390391381 0 0 0
56 1 8.237654175099077 6.682754184409847 5.701032374193219 0 0 0
64 1 11.209547740921245 10.50565547776229 6.814022002917513 -1 0 0
67 1 1.177482569975303 8.498385562828364 6.149416903912946 0 0 0
68 1 2.2662969840592098 10.033146880683407 4.265565816004401 0 0 0
99 1 2.4494112363109455 10.533998910276276 6.924317428040951 0 0 0
13 1 5.18767633467649 10.53738389279751 6.888419519983932 0 0 0
17 1 8.356497710745282 10.902722254684775 6.932190906337 0 0 0
22 1 6.84964472569083 8.782726144621874 6.135009051987961 0 0 0
104 1 3.76141285768686 8.660056846042332 6.017109447086847 0 0 0
117 1 5.447393345461094 9.744601823834014 4.355843919292174 0 0 0
18 1 8.067861341029289 10.148224127737848 4.386112383226512 0 0 0
31 1 9.99033383919938 0.0885720333982549 4.931047986358387 0 1 0
32 1 11.192348925353143 9.685250272175315 4.361584428076194 0 0 0
36 1 10.862644153313369 7.223524975927997 7.794715902958557 0 0 0
50 1 9.506228994278816 8.796199390834134 6.135841933539941 0 0 0
51 1 9.683570003042819 10.769032320812041 2.5687799571791228 0 0 0
75 1 11.152343665426766 3.2085119167883596 11.057167610097471 -1 0 0
79 1 0.3148027908261696 2.8611117056531383 8.697217855285567 0 0 0
83 1 1.3147026711967 1.352770191312315 10.31183854795195 0 0 0
103 1 3.7916286279999443 1.6788487370748617 9.930816673105728 0 0 0
93 1 6.814043071159163 1.6880628289020552 10.357099001381922 0 0 0
3 1 7.093532193893946 3.338436021218773 8.403054480017847 0 0 0
7 1 9.50035816549663 1.719837154408829 9.769876273824092 0 0 0
71 1 1.3919872265471787 7.0272012703801705 0.994846076693164 0 0 1
72 1 2.507745718888094 7.363835059993636 7.925468491409607 0 0 0
76 1 1.418489944742012 6.0413382784441065 9.872335428008714 0 0 0
110 1 2.28750657535175 3.7421122395850905 10.340662638296967 0 0 0
21 1 6.574593918106652 5.8390573669028 9.476312323138858 0 0 0
25 1 4.828894334924169 3.8951369435221 9.452176262374808 0 0 0
26 1 6.273452530809268 5.282012124396824 6.843914089592257 0 0 0
29 1 6.471786055481973 4.133698443467139 0.23127754756249874 0 0 1
106 1 3.9480119621115937 6.2636483157157485 9.743139862285236 0 0 0
107 1 5.339895370573747 7.430074415897526 7.767244684643939 0 0 0
111 1 3.8740596017506723 5.276409287530039 7.380789388835567 0 0 0
28 1 8.570709654532513 5.398156947757628 7.891358641905489 0 0 0
38 1 10.832218059663806 5.560669904121962 0.23554694136124837 0 0 1
39 1 10.781055186048674 5.03423641290309 9.012599261802686 0 0 0
42 1 8.687643961037379 4.109610073509355 10.2026384655715 0 0 0
54 1 9.05422706663548 6.539353729095683 10.03126364456613 0 0 0
55 1 7.961907773791812 7.695465632009217 8.053399245411683 0 0 0
63 1 2.5730757915839253 0.09656356618057206 0.7720850509432696 0 1 1
66 1 2.5496117834383982 11.127036188234037 9.468886307100117 0 0 0
98 1 4.042900895145536 9.957320242370429 0.006895162333027511 0 0 1
101 1 2.3744680924358756 8.344813888352379 10.358225052202444 0 0 0
102 1 3.956209585724829 9.279257150512487 8.649468833848092 0 0 0
12 1 5.120930756451502 11.413324876979317 9.460176203304625 0 0 0
15 1 5.520627639569968 8.148235580801993 10.30070063674589 0 0 0
16 1 6.679958165622949 9.692785969553396 8.599575221291769 0 0 0
48 1 7.980375991002484 8.620308144645158 10.46794084759467 0 0 0
34 1 11.149575403166779 7.954048276326046 10.454377381047713 0 0 0
35 1 0.9149367032240684 9.283013712279098 8.624768547866719 1 0 0
46 1 8.290704211579245 11.345538935658087 9.526037774619267 0 0 0
49 1 9.724022563658117 9.366846311225187 8.700197999667663 0 0 0
88 1 11.055458827094464 11.457856817759689 9.2692554675194 0 0 0

Velocities

1 0 0 0
61 0 0 0
81 0 0 0
86 0 0 0
116 0 0 0
62 0 0 0
91 0 0 0
96 0 0 0
97 0 0 0
5 0 0 0
10 0 0 0
11 0 0 0
45 0 0 0
77 0 0 0
78 0 0 0
82 0 0 0
112 0 0 0
43 0 0 0
58 0 0 0
90 0 0 0
113 0 0 0
2 0 0 0
6 0 0 0
27 0 0 0
44 0 0 0
92 0 0 0
65 0 0 0
69 0 0 0
70 0 0 0
105 0 0 0
14 0 0 0
19 0 0 0
20 0 0 0
52 0 0 0
100 0 0 0
33 0 0 0
37 0 0 0
47 0 0 0
53 0 0 0
84 0 0 0
85 0 0 0
114 0 0 0
118 0 0 0
59 0 0 0
73 0 0 0
89 0 0 0
94 0 0 0
8 0 0 0
9 0 0 0
57 0 0 0
95 0 0 0
74 0 0 0
80 0 0 0
87 0 0 0
108 0 0 0
23 0 0 0
24 0 0 0
60 0 0 0
109 0 0 0
115 0 0 0
4 0 0 0
30 0 0 0
40 0 0 0
41 0 0 0
56 0 0 0
64 0 0 0
67 0 0 0
68 0 0 0
99 0 0 0
13 0 0 0
17 0 0 0
22 0 0 0
104 0 0 0
117 0 0 0
18 0 0 0
31 0 0 0
32 0 0 0
36 0 0 0
50 0 0 0
51 0 0 0
75 0 0 0
79 0 0 0
83 0 0 0
103 0 0 0
93 0 0 0
3 0 0 0
7 0 0 0
71 0 0 0
72 0 0 0
76 0 0 0
110 0 0 0
21 0 0 0
25 0 0 0
26 0 0 0
29 0 0 0
106 0 0 0
107 0 0 0
111 0 0 0
28 0 0 0
38 0 0 0
39 0 0 0
42 0 0 0
54 0 0 0
55 0 0 0
63 0 0 0
66 0 0 0
98 0 0 0
101 0 0 0
102 0 0 0
12 0 0 0
15 0 0 0
16 0 0 0
48 0 0 0
34 0 0 0
35 0 0 0
46 0 0 0
49 0 0 0
88 0 0 0
