LAMMPS data file via write_data, version 22 Jul 2025, timestep = 224, units = metal

128 atoms
3 atom types

0 11.464695 xlo xhi
0 11.317635 ylo yhi
0 11.648808 zlo zhi
0 0 0 xy xz yz

Masses

1 63.55
2 63.55
3 63.55

Atoms # atomic

67 1 2.4533222349790957 11.2358672366434 3.5895019142191615 0 -1 0
68 1 3.425320829474382 1.1154943241582773 1.5694783911499832 0 0 0
91 1 0.9244760623452158 0.9925153613182827 2.0064866861378117 0 0 0
126 1 2.3069579849305146 2.3851918386200763 3.539339141831848 0 0 0
4 1 7.302781322580244 2.846530149597921 2.7778535156498596 0 0 0
10 1 7.515174597695862 0.3951245536440975 3.0015136811569922 0 0 0
98 1 4.778725580175782 2.579706721514442 3.1260096964023245 0 0 0
104 1 4.9678360707918765 0.09254009965170969 3.345400149714168 0 0 0
105 1 5.94333473523006 1.3140196674665308 1.293673919729223 0 0 0
11 1 8.390927283402927 1.6270849831240612 0.8774926918377987 0 0 0
40 1 9.77763097009713 3.123259317704089 2.395417957378807 0 0 0
46 1 10.012560449813982 0.6745620962346948 2.6993279517791153 0 0 0
48 1 10.801383715255108 2.0140084832378498 0.40567147353584293 0 0 0
78 1 0.6040373506547362 6.83561935900039 3.83281638089112 0 0 0
84 1 0.6173358157480549 5.898093418229389 1.597273073374574 0 0 0
88 1 0.7273299415793918 3.4493427554894853 1.8855485653370858 0 0 0
97 1 3.203770108252447 3.6453421488884814 1.4625133460095483 0 0 0
114 1 3.17305812540908 7.057828833455673 3.7074657297911364 0 0 0
120 1 2.127461044278902 4.854808011679893 3.330175251585725 0 0 0
121 1 3.1080603111299783 6.176887913611687 1.2803818639934736 0 0 0
22 1 5.511999214733179 7.318253581830207 2.835776661369562 0 0 0
28 1 4.618565461825344 5.061193225214897 2.9768170995559426 0 0 0
29 1 5.533106020752393 6.237125826003919 0.7863487351151908 0 0 0
33 1 7.107226160234138 5.286448526285794 2.4378587329379293 0 0 0
99 1 5.738933433432546 3.764592071674531 1.0911543091913063 0 0 0
5 1 8.23364433092144 4.105371250812204 0.6289806587810485 0 0 0
35 1 9.598630846522079 5.5897824533183496 2.128838726836523 0 0 0
36 1 10.613116092898455 6.868424658974214 11.502523633842749 0 0 -1
41 1 10.668305876957849 4.437737494658725 0.18251506622500963 0 0 0
47 1 8.018121958731637 6.608363904258612 0.20139214619158075 0 0 0
56 1 8.026079806320347 7.549556191785144 2.4414995448127943 0 0 0
127 1 10.525471330602434 7.826718317493844 2.0925794115856764 0 0 0
73 1 1.7311097477631716 9.032167092554246 4.285486478364602 0 0 0
74 1 2.3711633854159966 10.241162561930743 1.1406804640767474 0 0 0
80 1 1.702962022836235 8.07208672370576 1.9227017581722363 0 0 0
92 1 0.15410709671384032 10.034784356749308 2.348438993165271 0 0 0
23 1 6.372742478880548 8.467739746984888 0.5100903373116626 0 0 0
30 1 6.4949233181320265 9.520687708481699 2.811292701883399 0 0 0
109 1 3.8894612406925058 9.227683459676326 2.892959357323234 0 0 0
110 1 4.913296102577433 10.419813364953455 0.9486143542356776 0 0 0
115 1 3.7851577308404725 8.326658242234704 0.21853646586168526 0 0 0
17 1 7.450140637971265 10.639763111777327 0.6506238639395919 0 0 0
51 1 9.013662459426767 9.774339144527461 2.492962680515751 0 0 0
52 1 9.973916742222038 11.015960965624076 0.48361640653032045 0 0 0
57 1 9.048772356277249 8.772233176194169 0.18510068677387498 0 0 0
66 1 3.8416048561659952 1.3906275763805998 5.190996632249571 0 0 0
79 1 0.4354667987348224 11.03441936071528 8.178297704135868 0 -1 0
90 1 1.6181344325965707 0.7529824918019248 6.05531511670398 0 0 0
124 1 2.866887439424705 2.4180261712459044 7.280345727891983 0 0 0
2 1 7.7185609130037545 3.1316523458318324 6.345001497138324 0 0 0
8 1 7.840548897684538 0.6868132662134905 6.5586500548496485 0 0 0
64 1 5.249819036659043 2.8538883589041038 6.761717651572212 0 0 0
102 1 5.295933959863808 0.4136303871460608 6.90049358268691 0 0 0
103 1 6.331572600952151 1.6248098119340235 4.834253544598215 0 0 0
9 1 8.85770364015308 1.9028492673901478 4.507789280330101 0 0 0
38 1 10.214010496353492 3.3641569653825862 5.973645231775549 0 0 0
44 1 10.423016181354331 0.8973978902423557 6.246654971161948 0 0 0
45 1 11.396263478331994 2.0732351613609934 4.127126844462399 0 0 0
76 1 1.7705359316111655 6.78375909291876 7.718271491263598 0 0 0
82 1 1.2926304944819615 4.44386469230318 7.875461713323606 0 0 0
83 1 2.1094227154545093 5.764846675027916 5.573408014163801 0 0 0
87 1 1.2792219839545105 3.4310050349282117 5.612035481540003 0 0 0
118 1 3.6465880479155834 4.804665619532273 7.322493552909584 0 0 0
125 1 3.683299096804047 3.837408251284763 5.045793006526085 0 0 0
20 1 6.931987937536039 7.443166275771863 6.666015440528161 0 0 0
26 1 6.240542442125477 5.067425162522022 6.982645330064183 0 0 0
27 1 7.094554009844326 6.319485425611735 4.591213411003621 0 0 0
65 1 6.158316318276391 4.071791855394598 4.648057145292027 0 0 0
112 1 4.847414499360289 6.850469651449543 7.820555890508389 0 0 0
119 1 4.723995136366492 6.0582048464622265 5.340383238800933 0 0 0
3 1 8.646427108856889 4.366280344812019 4.259750788610368 0 0 0
34 1 11.17513987665577 5.58032930639059 6.27129829349708 0 0 0
39 1 11.162113893968048 4.575703157523849 3.9216848750617115 0 0 0
54 1 9.591771414933216 7.56758099334235 6.917943722089254 0 0 0
60 1 8.626016605581778 5.414690245550776 6.573185685948926 0 0 0
61 1 9.62602766561083 6.595889946895485 4.475880724319767 0 0 0
72 1 0.14588294015166287 10.972419855071916 4.538524992587147 0 0 0
77 1 3.2767425816794105 7.915435533471584 6.128926987863278 0 0 0
93 1 0.4624328907457165 7.806260500104415 6.015241457434742 0 0 0
16 1 6.506006989427762 10.49311330048973 5.147832140358404 0 0 0
108 1 3.8235325226586343 10.256067960141857 5.439581392805094 0 0 0
113 1 5.400094836333167 8.390687431094001 4.94580334075739 0 0 0
21 1 8.046631907446532 8.560752998880144 4.680237683666579 0 0 0
50 1 9.042163816916045 10.773270756034965 4.791783625563124 0 0 0
55 1 10.52053996064006 8.826284256641818 4.295893912942773 0 0 0
85 1 1.8533717681525737 2.2896323571462376 11.58507019766749 0 0 0
86 1 2.8304517502750532 3.4883190103821233 9.529247309670787 0 0 0
89 1 10.736599608834695 1.09745342041713 9.77045615390912 -1 0 0
95 1 1.8709494395560256 1.250370638949696 9.333541257837613 0 0 0
96 1 0.8013249796918633 0.10561178209938592 11.354578388528399 0 0 0
122 1 4.348650029957117 2.3401194253811286 11.233603894439437 0 0 0
6 1 5.893929241889649 0.3936233815798327 10.653378372882983 0 0 0
31 1 6.801391274494138 2.6373462679722053 10.78725501717578 0 0 0
63 1 7.763268311647046 4.09910158021901 8.640985418421621 0 0 0
100 1 3.396886188948382 0.07057465860597467 10.835126719687064 0 0 0
101 1 6.830863372865304 1.8696790795741909 8.48799364327354 0 0 0
123 1 4.447376457069469 1.5290543496754618 8.954908123007597 0 0 0
7 1 9.326146994158425 11.023763453694649 8.222481442036141 0 -1 0
15 1 9.264046123789305 2.1444565102304844 8.045572876603787 0 0 0
32 1 9.215032792622013 2.9323445938270805 10.349878445777557 0 0 0
37 1 0.27653160591770654 3.3405323894995926 9.918374296158557 1 0 0
42 1 8.349926466127922 0.5156242486680888 10.27983653016661 0 0 0
43 1 0.3117177445630971 2.2470284702298033 7.686252427821931 1 0 0
1 1 0.17700749538454988 5.997395642913122 9.473684933874015 0 0 0
81 1 3.110788954030417 6.003326479391156 9.486040729003516 0 0 0
94 1 1.6653457796138982 4.8364735582286125 11.311191797304392 0 0 0
18 1 5.3073365382647655 7.171194972388543 10.178580365584276 0 0 0
24 1 6.643452598545907 5.065155804994995 10.615095639577532 0 0 0
116 1 4.196971406948731 4.776250356021365 11.138009722377479 0 0 0
117 1 5.236804249409303 3.924840491154578 9.027939319334111 0 0 0
25 1 7.381656915385788 6.610432852109745 8.843395864110462 0 0 0
58 1 9.184758642437787 5.394766176920689 10.133198555336591 0 0 0
59 1 10.241063445997677 4.38658814435181 8.220401121884006 0 0 0
69 1 0.19794379719892785 9.041796684181802 0.171414802408546 0 0 1
70 1 1.7669241077302564 9.745140058472463 9.985388503234455 0 0 0
71 1 0.23991005760391948 8.44811585716307 8.512426297422003 0 0 0
75 1 1.6921851284267633 7.352756096593027 10.955166064565509 0 0 0
107 1 1.740812069977185 9.670219569454076 6.742978136109369 0 0 0
12 1 4.944751768820693 9.604500682983275 9.968943770045485 0 0 0
13 1 6.763605082619999 10.781666394094923 8.587535933331273 0 0 0
14 1 5.274983186792286 9.251313041274715 7.351416713535882 0 0 0
19 1 7.438778164382173 8.93044593323968 9.943250478642314 0 0 0
106 1 3.3023912964961553 10.86255875110974 8.13732490601772 0 0 0
111 1 3.2269988633441793 8.415151956040491 8.713480929351057 0 0 0
49 1 8.025495983478317 9.503887849810233 6.9596297241258975 0 0 0
53 1 9.528678648393088 7.713910051411734 9.398704635358087 0 0 0
62 1 10.407260991478102 9.924442125455515 9.995339292575887 0 0 0
128 1 10.582494932558447 9.769897196911629 6.561291414732558 0 0 0

Velocities

67 0 0 0
68 0 0 0
91 0 0 0
126 0 0 0
4 0 0 0
10 0 0 0
98 0 0 0
104 0 0 0
105 0 0 0
11 0 0 0
40 0 0 0
46 0 0 0
48 0 0 0
78 0 0 0
84 0 0 0
88 0 0 0
97 0 0 0
114 0 0 0
120 0 0 0
121 0 0 0
22 0 0 0
28 0 0 0
29 0 0 0
33 0 0 0
99 0 0 0
5 0 0 0
35 0 0 0
36 0 0 0
41 0 0 0
47 0 0 0
56 0 0 0
127 0 0 0
73 0 0 0
74 0 0 0
80 0 0 0
92 0 0 0
23 0 0 0
30 0 0 0
109 0 0 0
110 0 0 0
115 0 0 0
17 0 0 0
51 0 0 0
52 0 0 0
57 0 0 0
66 0 0 0
79 0 0 0
90 0 0 0
124 0 0 0
2 0 0 0
8 0 0 0
64 0 0 0
102 0 0 0
103 0 0 0
9 0 0 0
38 0 0 0
44 0 0 0
45 0 0 0
76 0 0 0
82 0 0 0
83 0 0 0
87 0 0 0
118 0 0 0
125 0 0 0
20 0 0 0
26 0 0 0
27 0 0 0
65 0 0 0
112 0 0 0
119 0 0 0
3 0 0 0
34 0 0 0
39 0 0 0
54 0 0 0
60 0 0 0
61 0 0 0
72 0 0 0
77 0 0 0
93 0 0 0
16 0 0 0
108 0 0 0
113 0 0 0
21 0 0 0
50 0 0 0
55 0 0 0
85 0 0 0
86 0 0 0
89 0 0 0
95 0 0 0
96 0 0 0
122 0 0 0
6 0 0 0
31 0 0 0
63 0 0 0
100 0 0 0
101 0 0 0
123 0 0 0
7 0 0 0
15 0 0 0
32 0 0 0
37 0 0 0
42 0 0 0
43 0 0 0
1 0 0 0
81 0 0 0
94 0 0 0
18 0 0 0
24 0 0 0
116 0 0 0
117 0 0 0
25 0 0 0
58 0 0 0
59 0 0 0
69 0 0 0
70 0 0 0
71 0 0 0
75 0 0 0
107 0 0 0
12 0 0 0
13 0 0 0
14 0 0 0
19 0 0 0
106 0 0 0
111 0 0 0
49 0 0 0
53 0 0 0
62 0 0 0
128 0 0 0
