LAMMPS data file via write_data, version 22 Jul 2025, timestep = 197, units = metal

131 atoms
3 atom types

0 11.464695 xlo xhi
0 11.317635 ylo yhi
0 11.648808 zlo zhi
0 0 0 xy xz yz

Masses

1 63.55
2 63.55
3 63.55

Atoms # atomic

1 1 2.172062390038758 11.073333309682488 2.4267800001606523 0 -1 0
91 1 3.3128513379590263 4.2875672810841055 2.767559157380601 0 0 0
92 1 11.322910734752842 10.747566231468234 1.9154596976700853 -1 -1 0
129 1 2.493294175949079 1.9383541759016323 1.1441803911997923 0 0 0
131 1 0.9483195479472069 3.922521176089287 2.177157373437116 0 0 0
67 1 6.2013633387799105 1.0090352744190025 0.679844823491902 0 0 0
97 1 3.191206926744996 1.875640499573921 3.467130014808094 0 0 0
104 1 6.446324362486704 1.540750216062076 3.2639182658699024 0 0 0
128 1 5.033289445601012 3.2157151788767444 4.308928891207618 0 0 0
4 1 10.721513187197584 3.185670227296645 4.391868546756105 0 0 0
5 1 8.012214263616693 2.3625631147491206 1.5195072321624326 0 0 0
9 1 9.810133175101996 1.1960592440974938 2.9745656297055363 0 0 0
44 1 0.06987069166662783 1.799250275895221 1.0961136979127102 1 0 0
98 1 8.3060526338115 2.914159917944011 4.043470161291158 0 0 0
79 1 10.610700300028705 5.362455329904162 0.7043851343255434 -1 0 0
85 1 1.8291712966583789 5.901049995325565 3.8050169876087465 0 0 0
86 1 1.1675351252720947 6.434965187350093 1.4642568060388996 0 0 0
116 1 3.4748420484215283 6.783740782550773 2.102581265405376 0 0 0
21 1 6.712462638151555 6.564976668816075 1.9173438305956585 0 0 0
27 1 6.844419644174637 4.631691412835524 5.095318641183832 0 0 0
28 1 6.5452784188142346 4.038009208796261 2.554791923918554 0 0 0
123 1 4.914758636957072 5.167978436278268 1.0385234955322868 0 0 0
40 1 10.888776777854966 5.707058182013895 3.280400282404115 0 0 0
58 1 8.42560223238106 5.350547050799828 3.2591722661385676 0 0 0
64 1 9.968914205111403 3.5862722934257705 2.1937310738176623 0 0 0
72 1 1.363937428081368 8.90557286741984 0.7903619551092242 0 0 0
73 1 10.785200580205752 7.853970121934517 0.09795286988458589 -1 0 0
78 1 1.9740603369260084 8.381148208209096 3.0825814738701975 0 0 0
80 1 3.262758937479848 9.155703013797888 10.683851461706798 0 0 -1
109 1 4.576145806237359 0.18701089886216427 2.4653471353879963 0 1 0
110 1 3.6202438072643255 9.32941190125026 1.5091677649282542 0 0 0
14 1 6.2927007470155365 10.409389429304587 3.866985342979185 0 0 0
15 1 6.022189972762477 9.893240260900933 1.3388010867599307 0 0 0
22 1 7.4931645730550285 8.217888039977373 0.278616997899885 0 0 0
115 1 5.208010204290478 8.28598399421254 3.0164039761731245 0 0 0
117 1 5.078446260579454 7.6876604289919594 0.4248474087304968 0 0 0
37 1 11.080771854640714 8.249360643949334 2.606234136832177 0 0 0
50 1 9.663978300409468 10.011562046019263 3.6911545277803968 0 0 0
51 1 7.7427021059302685 8.744419312184492 2.8064689330857986 0 0 0
52 1 9.366042572198882 9.534333754422805 1.149747474770538 0 0 0
59 1 9.161677044773414 7.044325595020419 1.746952268247807 0 0 0
65 1 0.4793189636816551 2.3795962157557247 6.255359398336653 0 0 0
90 1 1.7399818242452227 3.4834572315010006 4.517087271879078 0 0 0
95 1 2.1253552989690094 1.2289786152935602 7.652941848176328 0 0 0
96 1 0.7225979547344996 1.5043466777157746 3.3724190989118057 0 0 0
99 1 2.053802257837369 0.6188523725788236 5.151760678462152 0 0 0
66 1 6.709901330938436 2.075373395079193 5.821413553246111 0 0 0
103 1 4.801316701884288 0.6863285260025329 4.969229674119521 0 0 0
127 1 3.4535106872329417 2.429110900651962 6.017261295883617 0 0 0
130 1 4.966626082806067 1.1693086666791939 7.54942037858756 0 0 0
3 1 9.254731360954382 2.1737859459091053 6.285456207859303 0 0 0
7 1 10.89280114668442 0.9179958743177405 7.813642731099394 0 0 0
8 1 8.197050247368287 0.3990149751877382 4.75230913833828 0 0 0
45 1 10.727936362512013 0.4716123978704173 5.232587172953836 0 0 0
102 1 7.491500307652464 1.3240883012675502 8.04150527519144 0 0 0
77 1 0.4718166274364269 7.630607662528452 4.91178888334682 0 0 0
84 1 0.2877018517146438 5.1152871279408805 5.5839536815055135 0 0 0
114 1 3.5495393773594364 7.4377842453009615 4.682731992635727 0 0 0
121 1 3.577903003251964 4.879570228325074 5.339915371930385 0 0 0
19 1 5.362091295966721 6.341527139637406 6.123584416744387 0 0 0
25 1 6.3145672985916175 5.634843052315552 8.41837956906171 0 0 0
26 1 5.309471504959013 3.8066805658991587 6.875544645959601 0 0 0
120 1 3.8741214519756486 5.495935702689542 7.912824628478507 0 0 0
122 1 5.089351751702114 5.731994284419113 3.619690526008266 0 0 0
34 1 9.2794476202519 4.885627183603039 5.384568487685837 0 0 0
39 1 10.31554059462728 6.790037866859527 6.649711850762852 0 0 0
42 1 10.344957526983652 4.157211133429009 7.341011513830802 0 0 0
56 1 7.8322276674972 6.5496013331986775 6.403699997448192 0 0 0
62 1 8.8011645917187 5.936706268089118 8.434192965667096 0 0 0
63 1 7.794392579954723 3.893972573370836 7.347402614714464 0 0 0
70 1 0.9405582267588729 10.524451563537932 6.735737184721508 0 0 0
71 1 0.7064241248626345 10.074850511904922 4.230422443227553 0 0 0
76 1 0.7478326379497942 8.177142065284226 7.400288564745006 0 0 0
108 1 3.5107532522853133 9.963198746285352 4.144970505776493 0 0 0
12 1 6.454744711192309 10.846505145671431 6.493134736155713 0 0 0
13 1 5.338327488309263 8.910073145473378 5.426757876970345 0 0 0
18 1 6.364132700952015 8.205319446530531 7.4200392773455475 0 0 0
20 1 6.91074937865686 7.121533375768107 4.338710607283647 0 0 0
107 1 3.5663483674378127 10.587903939276423 6.512483935576601 0 0 0
113 1 3.852013280127083 8.013996198914427 7.1410326637018615 0 0 0
36 1 10.402348582598162 9.267813321482143 5.92971003745979 0 0 0
48 1 8.954363093440032 10.953919807535673 6.9766106867680575 0 0 0
49 1 7.911673811195568 9.14147393703747 5.434187551377414 0 0 0
55 1 8.81683564833919 8.455559767724258 7.703915212901968 0 0 0
57 1 9.416555290451036 7.429896204729223 4.377531254928895 0 0 0
87 1 0.5909139155927613 3.70970120304542 11.303549261711536 0 0 0
88 1 0.5288475252654433 3.022829319201782 8.720244454801051 0 0 0
89 1 2.02355980290771 4.062100081455371 7.089688552047998 0 0 0
93 1 1.6884021823542288 11.223322823992202 0.0023044257716134955 0 -1 1
94 1 1.0491424916840406 11.166986833571984 9.318871274316885 0 -1 0
125 1 2.0505276278935125 2.0278570068175705 10.330759187843343 0 0 0
29 1 6.3408568173836715 3.4997352913885376 11.633706590939907 0 0 0
30 1 4.349250892912717 2.334876741520029 10.926261289194413 0 0 0
32 1 6.0580352201906775 3.040133814743413 9.111700981757668 0 0 0
100 1 4.749117620491715 2.648387045245747 1.7081626206616138 0 0 1
101 1 7.9146364181222095 11.20300020565168 2.199456340841986 0 -1 1
124 1 2.8078196183854325 4.255064124539365 0.35253992808996565 0 0 1
126 1 3.6472892546098326 2.9379751860160224 8.60243068025112 0 0 0
2 1 9.423711687282664 2.5992076723199493 8.905383738045083 0 0 0
6 1 9.487363075088078 0.6972399512436291 0.47807731804852877 0 0 1
31 1 7.7925396284012765 1.8238275252960525 10.590267170694299 0 0 0
33 1 9.661148697659922 3.136280966236204 11.448527201319747 0 0 0
43 1 11.111709053635867 1.4762648596058179 10.384979677901654 0 0 0
75 1 10.587077318730598 7.367182892464779 9.16404465434819 -1 0 0
81 1 0.7550677820001828 6.229031368123854 10.670074955564544 0 0 0
82 1 0.55848659082939 5.701734338262656 8.138728551636678 0 0 0
83 1 2.122124664184282 6.487061130277057 6.402818341670053 0 0 0
112 1 2.3989091428385634 7.105932696244108 8.973491801996781 0 0 0
119 1 2.218677924837471 4.611901776595223 9.622000683445737 0 0 0
17 1 4.7934326302138786 7.403689528950861 9.472862162325482 0 0 0
23 1 6.522686297007705 5.999969051370622 11.024909461524025 0 0 0
24 1 4.585598661990276 4.8148410919169295 10.195519883776564 0 0 0
118 1 3.049503076680875 6.659790528284813 11.304477316341698 0 0 0
38 1 8.967406930476931 6.493414872542329 10.860048528682157 0 0 0
41 1 10.451364586093112 4.761879081037538 9.792543618925485 0 0 0
54 1 7.259569116563486 7.714507715332883 9.528074216787035 0 0 0
60 1 8.190556881490341 4.836367825827341 0.8497484638045838 0 0 1
61 1 7.968748312464876 4.296538420736412 9.970762340533012 0 0 0
68 1 10.958065417953236 10.366740327976828 11.096017952963473 -1 0 0
69 1 10.704467512399411 9.802975196347553 8.452471148421147 -1 0 0
74 1 0.9232943863136327 8.723510725823827 10.03416032283452 0 0 0
106 1 3.4862363908506975 0.26776373929982406 9.433511014926498 0 1 0
10 1 5.855632448632159 0.5698769773642212 9.846203275178752 0 1 0
11 1 4.9528336447501236 9.937489503356282 8.360543211604082 0 0 0
16 1 5.687083749689927 9.495617107642229 10.5846780556746 0 0 0
105 1 4.110973611401912 11.288299871992642 0.09268100777400261 0 0 1
111 1 2.5187026535035857 9.544153975701336 8.395602139983174 0 0 0
35 1 9.14589616908954 9.022357820848486 10.233675149685908 0 0 0
46 1 9.255226007718479 0.15424341268326125 9.5276962318049 0 1 0
47 1 7.354932605986425 10.156581174559635 8.770135022279952 0 0 0
53 1 7.670574022068919 10.6776723682798 11.275198979333464 0 0 0

Velocities

1 0 0 0
91 0 0 0
92 0 0 0
129 0 0 0
131 0 0 0
67 0 0 0
97 0 0 0
104 0 0 0
128 0 0 0
4 0 0 0
5 0 0 0
9 0 0 0
44 0 0 0
98 0 0 0
79 0 0 0
85 0 0 0
86 0 0 0
116 0 0 0
21 0 0 0
27 0 0 0
28 0 0 0
123 0 0 0
40 0 0 0
58 0 0 0
64 0 0 0
72 0 0 0
73 0 0 0
78 0 0 0
80 0 0 0
109 0 0 0
110 0 0 0
14 0 0 0
15 0 0 0
22 0 0 0
115 0 0 0
117 0 0 0
37 0 0 0
50 0 0 0
51 0 0 0
52 0 0 0
59 0 0 0
65 0 0 0
90 0 0 0
95 0 0 0
96 0 0 0
99 0 0 0
66 0 0 0
103 0 0 0
127 0 0 0
130 0 0 0
3 0 0 0
7 0 0 0
8 0 0 0
45 0 0 0
102 0 0 0
77 0 0 0
84 0 0 0
114 0 0 0
121 0 0 0
19 0 0 0
25 0 0 0
26 0 0 0
120 0 0 0
122 0 0 0
34 0 0 0
39 0 0 0
42 0 0 0
56 0 0 0
62 0 0 0
63 0 0 0
70 0 0 0
71 0 0 0
76 0 0 0
108 0 0 0
12 0 0 0
13 0 0 0
18 0 0 0
20 0 0 0
107 0 0 0
113 0 0 0
36 0 0 0
48 0 0 0
49 0 0 0
55 0 0 0
57 0 0 0
87 0 0 0
88 0 0 0
89 0 0 0
93 0 0 0
94 0 0 0
125 0 0 0
29 0 0 0
30 0 0 0
32 0 0 0
100 0 0 0
101 0 0 0
124 0 0 0
126 0 0 0
2 0 0 0
6 0 0 0
31 0 0 0
33 0 0 0
43 0 0 0
75 0 0 0
81 0 0 0
82 0 0 0
83 0 0 0
112 0 0 0
119 0 0 0
17 0 0 0
23 0 0 0
24 0 0 0
118 0 0 0
38 0 0 0
41 0 0 0
54 0 0 0
60 0 0 0
61 0 0 0
68 0 0 0
69 0 0 0
74 0 0 0
106 0 0 0
10 0 0 0
11 0 0 0
16 0 0 0
105 0 0 0
111 0 0 0
35 0 0 0
46 0 0 0
47 0 0 0
53 0 0 0
