LAMMPS data file via write_data, version 22 Jul 2025, timestep = 442, units = metal

128 atoms
3 atom types

0 11.464695 xlo xhi
0 11.317635 ylo yhi
0 11.648808 zlo zhi
0 0 0 xy xz yz

Masses

1 63.55
2 63.55
3 63.55

Atoms # atomic

1 1 0.005426953206874323 1.817612304157481 2.6039335833669415 0 0 0
74 1 2.759704776557961 1.640216500588951 4.171753764720341 0 0 0
80 1 1.9802450617498477 0.832391750276373 1.6279832803663654 0 0 0
92 1 0.7512214758494989 3.1116177954907065 4.474825461957652 0 0 0
93 1 1.4678735070363405 6.16864415490553 1.9287424816960572 0 0 0
116 1 0.5744443261863094 0.6126169738523213 4.66377429419914 0 0 0
24 1 4.269910187252377 0.40170185898841815 2.482984223893446 0 0 0
60 1 6.5866152336191455 0.26314370291468486 3.2975363025070696 0 0 0
75 1 3.4951959408219317 2.7118855465081086 2.062708612579327 0 0 0
111 1 5.1723643346968124 1.998498518589896 4.244425104271029 0 0 0
112 1 7.508270096430442 3.3506328193062136 0.5331178418713584 0 0 0
117 1 5.891987784953617 2.284385797969682 1.9625381433978757 0 0 0
19 1 8.336166261380171 1.8707107564087098 2.3290602259584072 0 0 0
25 1 7.284330283861446 0.7314526228558641 0.534422134667026 0 0 0
56 1 10.440782729706608 2.138481566193346 5.941649334621083 0 0 0
61 1 10.02539189911933 0.5148689462826466 1.0658765339814151 0 0 0
127 1 9.722601584419289 0.504187345601098 3.758826015233478 0 0 0
70 1 3.4125126211401833 4.916637637999306 1.1973483617161704 0 0 0
89 1 11.21467248629953 4.934118218426582 3.1322826174730674 -1 0 0
95 1 0.5727081832537275 7.696052062895883 0.15833147433387004 0 0 0
8 1 6.76999673206744 6.177023482284822 3.196323926896685 0 0 0
107 1 5.875024464343541 4.824881310553818 1.4989811002809559 0 0 0
16 1 8.694159403770747 5.180716685225313 1.7721104124541232 0 0 0
20 1 1.1728445897566604 3.696653951940113 1.5009030002997423 1 0 0
44 1 8.999315405659205 5.641647464049388 4.147373884979032 0 0 0
46 1 9.412722581512892 7.212393467074619 11.501878978280109 0 0 -1
52 1 10.867431726941858 7.282236577246049 2.666472416673578 0 0 0
83 1 0.6793587500409496 10.306827694348732 0.27762820510972563 0 0 0
86 1 1.6104357635408115 8.600970486022572 2.3136220964714713 0 0 0
96 1 3.1385663747984736 7.517735241286483 0.6939638909715327 0 0 0
121 1 2.3445608425924824 10.589754568024361 3.5430466015365147 0 0 0
122 1 3.226670319628549 10.115516832269938 0.8445896765466381 0 0 0
2 1 6.654372053537029 9.099765679118914 3.239221598527876 0 0 0
31 1 4.151630506653438 9.094361464979325 2.8493816910226495 0 0 0
63 1 5.744049542039233 10.193268209791148 1.2283573752729202 0 0 0
101 1 5.5726431989464835 7.496641530892707 1.5877633082303035 0 0 0
3 1 8.329359452421308 10.395327476606012 2.085563897941799 0 0 0
9 1 8.447471051975235 7.619488115363942 2.2393888741759778 0 0 0
37 1 9.70622129248341 9.150011177312003 3.776684975329892 0 0 0
38 1 0.05821150646649212 10.566128137687258 2.6421563750630597 1 0 0
39 1 10.189726838833176 9.124098907299134 1.1843704338926324 0 0 0
45 1 0.6658072481389661 9.082763218745615 4.581067451874537 1 0 0
78 1 1.6679326724567758 1.9625260074172581 6.394492846907465 0 0 0
94 1 0.21370764614335905 3.5882585772467768 7.6486361191503605 0 0 0
23 1 6.338981968373599 0.564952573110644 6.08609246964696 0 0 0
26 1 8.204725534777122 0.47801845162957424 9.292120585489286 0 0 0
110 1 6.15866815299509 3.227727773440236 6.006939397213586 0 0 0
115 1 4.120751022331562 1.4214654446006074 6.549093841252507 0 0 0
118 1 2.8331347450359363 3.2201926640590863 7.997658022869821 0 0 0
18 1 7.922985046818729 1.7903650982784738 4.815888359225732 0 0 0
59 1 8.77755882291568 0.6523270623529598 6.851436900162424 0 0 0
68 1 3.665932897022336 5.976945595947246 5.268795931038228 0 0 0
69 1 2.440379565092163 4.487023557319777 3.5634670437150184 0 0 0
73 1 3.7061227301536395 3.5536311473660884 5.618172945408623 0 0 0
88 1 1.360069177988077 6.654256363971191 4.410333437514367 0 0 0
91 1 1.69999629202353 4.757599048995071 6.135521915541543 0 0 0
97 1 3.6193419954809603 6.667235934855672 2.951492740759016 0 0 0
12 1 6.971418695123604 4.939423454519048 7.744151989590887 0 0 0
14 1 7.25529178847278 3.7985023528540265 3.577476558794852 0 0 0
100 1 5.263792710060666 7.557306295474663 4.462795518648262 0 0 0
104 1 4.3353742581686 5.2787404806983 7.48083772915279 0 0 0
105 1 6.348888518852715 5.654720530905856 5.557909239974348 0 0 0
106 1 4.891551720875148 4.467973036981769 3.6639016332926535 0 0 0
13 1 8.903942349091736 6.18210322361444 6.670629683569567 0 0 0
49 1 9.480624849814156 4.419347850938134 8.357737884984697 0 0 0
50 1 10.582927080691176 7.286672074706313 5.246377261042797 0 0 0
51 1 9.71563076922935 3.1935398341919696 3.7928018224843423 0 0 0
55 1 10.757815850048313 4.716946137709421 5.581001859777532 0 0 0
82 1 2.1159571852295844 10.657414511676581 6.075642722155951 0 0 0
85 1 0.3230331345631445 8.887802261054905 7.043214722756895 0 0 0
120 1 0.12864773763170886 0.4394292952525531 7.4365791992974755 0 1 0
125 1 2.130811884591925 7.058195693424537 6.901617126945171 0 0 0
126 1 3.075689997942949 8.572474818642988 5.090005673699139 0 0 0
6 1 7.056547728561426 7.55987887551858 7.328879196829904 0 0 0
28 1 4.468885827083465 10.36709248922331 7.068857802027056 0 0 0
29 1 4.5119595613602765 10.807918174973555 4.70254092576337 0 0 0
32 1 7.333015312963821 10.168026423824907 7.683689015447835 0 0 0
98 1 4.588721711059471 7.64930035642597 6.91880198235321 0 0 0
99 1 6.162157568402966 9.287383083049042 5.767268359883215 0 0 0
7 1 7.848409161499031 7.665913640514036 4.812752986619917 0 0 0
15 1 8.044096377094563 10.490157983103284 4.9305866187344725 0 0 0
35 1 9.855379498237044 10.233862721528677 8.32667095044788 0 0 0
36 1 10.459706597685015 10.528216120922867 5.726169024822127 0 0 0
42 1 9.917486541056137 7.764398222179108 8.403258780252145 0 0 0
43 1 9.02673397076703 8.815574926680025 6.483344615835166 0 0 0
72 1 1.7127496900428407 5.2482809032850115 8.71326362071491 0 0 0
76 1 2.2290764645257135 0.456942464566318 10.818066878506531 0 0 0
77 1 1.0719816087666616 1.912046509018352 9.237693730627376 0 0 0
114 1 3.9370201854902227 1.839492789175963 9.701970193083937 0 0 0
17 1 7.668339599369325 2.548739509646316 8.034214107960041 0 0 0
21 1 6.507275729663206 1.9875286378973216 10.278096079749597 0 0 0
22 1 5.732387088442909 0.6306919826930609 8.438717132174789 0 0 0
81 1 4.661510804270748 0.8273142180015537 0.12755112254488188 0 0 1
109 1 5.307634282165912 3.1300146479972253 8.250019441058969 0 0 0
113 1 4.8666018760644025 3.2860108566836725 11.58241368443591 0 0 0
33 1 10.05695922326886 2.0318614142677958 8.562202629900062 0 0 0
54 1 8.519011977172267 3.8445299910012567 6.008460365924137 0 0 0
57 1 10.086293659048698 3.2482447721260845 1.1988410453079263 0 0 1
58 1 9.156296222957907 2.0956323721959746 10.869348270436973 0 0 0
128 1 0.3406270307760935 1.8120941823875505 0.0733167471927231 1 0 1
66 1 2.7713367840308503 9.09237244782805 8.057701127859712 0 0 0
67 1 11.3488030236203 6.1621480210544926 7.37304050920563 -1 0 0
71 1 3.8789220500204395 4.549047631326078 9.769413108433914 0 0 0
79 1 3.421354312962597 7.0416289050066085 9.348365749058669 0 0 0
87 1 1.8219971028037758 5.650451299049216 11.081410865023354 0 0 0
90 1 2.389090434690781 3.092711387986875 11.135641225615135 0 0 0
10 1 7.211164170374403 6.249644226864739 0.02058098455218742 0 0 1
102 1 4.8098350044161435 6.078425688918984 11.308008334795447 0 0 0
103 1 5.812156290859957 6.603300023821308 9.20569258426942 0 0 0
108 1 6.5865797168430795 4.4138285282732275 10.100566812328537 0 0 0
11 1 8.251654691247301 6.311009942385898 9.353204346641444 0 0 0
30 1 9.085611780030058 4.602963727997211 10.866363727147622 0 0 0
48 1 10.977374191538624 5.4692913287478175 0.657902982087516 0 0 1
53 1 11.409641933802204 3.768041864128849 10.332101192232766 0 0 0
62 1 10.872815733334168 6.048922431930213 9.868665119320006 0 0 0
84 1 0.9765905330394915 7.666378361951743 9.135643602582183 0 0 0
119 1 2.646080668198142 0.4084471719360462 8.192651777420997 0 1 0
123 1 2.3927815565745805 8.967705239083317 10.576258842505739 0 0 0
124 1 0.9306443194184771 10.252864718975372 9.15111775340489 0 0 0
4 1 7.383418145371577 8.674835416053188 0.33038856632057706 0 0 1
27 1 4.0629171780457956 10.580038977551625 9.815973708876705 0 0 0
47 1 6.40888769204997 10.566303040296772 10.446666945096009 0 0 0
64 1 4.975390341481956 8.553917737174475 11.05360995449555 0 0 0
65 1 5.493786388670367 8.95875754879246 8.734026066608244 0 0 0
5 1 7.92792299409029 8.703268717142185 9.573279452870919 0 0 0
34 1 8.834080152441315 10.40927315325936 11.163305355054582 0 0 0
40 1 10.636434095133 9.010102079294471 10.333359934558842 0 0 0
41 1 10.739757243428228 0.30156140271223975 10.191666916292947 0 1 0

Velocities

1 0 0 0
74 0 0 0
80 0 0 0
92 0 0 0
93 0 0 0
116 0 0 0
24 0 0 0
60 0 0 0
75 0 0 0
111 0 0 0
112 0 0 0
117 0 0 0
19 0 0 0
25 0 0 0
56 0 0 0
61 0 0 0
127 0 0 0
70 0 0 0
89 0 0 0
95 0 0 0
8 0 0 0
107 0 0 0
16 0 0 0
20 0 0 0
44 0 0 0
46 0 0 0
52 0 0 0
83 0 0 0
86 0 0 0
96 0 0 0
121 0 0 0
122 0 0 0
2 0 0 0
31 0 0 0
63 0 0 0
101 0 0 0
3 0 0 0
9 0 0 0
37 0 0 0
38 0 0 0
39 0 0 0
45 0 0 0
78 0 0 0
94 0 0 0
23 0 0 0
26 0 0 0
110 0 0 0
115 0 0 0
118 0 0 0
18 0 0 0
59 0 0 0
68 0 0 0
69 0 0 0
73 0 0 0
88 0 0 0
91 0 0 0
97 0 0 0
12 0 0 0
14 0 0 0
100 0 0 0
104 0 0 0
105 0 0 0
106 0 0 0
13 0 0 0
49 0 0 0
50 0 0 0
51 0 0 0
55 0 0 0
82 0 0 0
85 0 0 0
120 0 0 0
125 0 0 0
126 0 0 0
6 0 0 0
28 0 0 0
29 0 0 0
32 0 0 0
98 0 0 0
99 0 0 0
7 0 0 0
15 0 0 0
35 0 0 0
36 0 0 0
42 0 0 0
43 0 0 0
72 0 0 0
76 0 0 0
77 0 0 0
114 0 0 0
17 0 0 0
21 0 0 0
22 0 0 0
81 0 0 0
109 0 0 0
113 0 0 0
33 0 0 0
54 0 0 0
57 0 0 0
58 0 0 0
128 0 0 0
66 0 0 0
67 0 0 0
71 0 0 0
79 0 0 0
87 0 0 0
90 0 0 0
10 0 0 0
102 0 0 0
103 0 0 0
108 0 0 0
11 0 0 0
30 0 0 0
48 0 0 0
53 0 0 0
62 0 0 0
84 0 0 0
119 0 0 0
123 0 0 0
124 0 0 0
4 0 0 0
27 0 0 0
47 0 0 0
64 0 0 0
65 0 0 0
5 0 0 0
34 0 0 0
40 0 0 0
41 0 0 0
