LAMMPS data file via write_data, version 22 Jul 2025, timestep = 152, units = metal

143 atoms
3 atom types

0 11.464695 xlo xhi
0 11.317635 ylo yhi
0 11.648808 zlo zhi
0 0 0 xy xz yz

Masses

1 63.55
2 63.55
3 63.55

Atoms # atomic

91 1 1.5259031180563873 2.101505019193836 1.0178976152537615 0 0 0
100 1 1.7094999913664193 11.056983699886125 1.4495593051398756 0 -1 0
137 1 4.006880833258458 2.396986568923214 1.4514475286835518 0 0 0
24 1 6.532157098541726 2.721554465872792 1.7454654275906707 0 0 0
72 1 6.6239265923279635 0.5059929303996258 2.414163569559705 0 0 0
131 1 4.190461252248515 0.11631521948221978 1.9697658780692682 0 0 0
13 1 9.07386054661322 0.798049625889112 2.7397657546777903 0 0 0
37 1 9.034793331158523 3.0223241968462546 2.0689613701417207 0 0 0
43 1 0.017604340191375658 3.2898260539721917 2.345511719750213 1 0 0
77 1 1.3253040062251398 4.50551584347394 0.5997927269700002 0 0 0
78 1 2.2475703116254984 6.062194214225967 2.174263325939502 0 0 0
98 1 2.4364247187495316 3.6264922872859886 2.666491530137805 0 0 0
126 1 3.766215329137442 4.8330341158761 0.8819612747631901 0 0 0
25 1 7.5003665332852005 4.358222553694083 3.1196354415014786 0 0 0
31 1 6.2995630668664795 5.192191664270936 1.1527801605025338 0 0 0
32 1 7.2281461344284095 6.719058303366213 2.7149180833042212 0 0 0
116 1 4.733038911178196 6.423212020704613 2.409628738243134 0 0 0
138 1 4.997880168971181 4.051902737339765 2.795703596944145 0 0 0
47 1 11.277897978655977 5.766658213071835 1.851843134408202 0 0 0
56 1 10.013001188277387 4.593488762009612 3.5466910856364695 0 0 0
63 1 8.821281744841226 5.48882005003611 1.5050799279257217 0 0 0
70 1 9.716659208693587 7.026687026789255 3.0611505422063403 0 0 0
84 1 1.098076696273381 6.977500859787227 0.17400783053982452 0 0 0
92 1 1.9919023641590177 8.561061051143264 1.7515424369000825 0 0 0
97 1 0.8360623750492252 9.490924898881945 11.435318750881148 0 0 -1
109 1 3.3289259462151417 9.827182827569436 0.15942144953695625 0 0 0
115 1 3.5443895856048426 7.297497257670345 0.4715558562065307 0 0 0
2 1 6.035554987641991 7.647308013534502 0.7707971997403813 0 0 0
85 1 4.429951939890179 8.854847439540851 2.063919636094942 0 0 0
117 1 6.96986570785092 9.113379536100503 2.3740436233702806 0 0 0
122 1 5.796902783480071 10.175638884785332 0.56302724283823 0 0 0
3 1 9.498215051981715 9.481727318836436 2.7520778790398266 0 0 0
16 1 8.25424110087336 10.496340871538512 0.9159585355616283 0 0 0
51 1 11.02514379929339 8.267795926847961 1.4321989051085844 0 0 0
54 1 10.699373979387369 10.764540145161567 1.1474415554606834 0 0 0
68 1 8.564500317243096 7.969232480333812 1.1068246679851708 0 0 0
90 1 2.3519792106701836 1.2996047009710985 3.203119763977558 0 0 0
101 1 1.1949388001050658 0.07620252467041161 4.8423816570856975 0 0 0
102 1 2.5007590556979236 1.4758778474871677 6.06629767501509 0 0 0
132 1 3.9402370703291245 0.21414388584218352 4.815501846012238 0 0 0
139 1 4.034372894495837 2.501373801904119 4.228857432914858 0 0 0
20 1 7.3393238478353595 2.062826325082669 6.676946954737789 0 0 0
27 1 6.401430601405284 2.7111464475519402 4.3749255855998515 0 0 0
28 1 5.830046770423838 3.280005867429688 8.024190264981302 0 0 0
35 1 6.349725302637005 0.5041087626358911 5.077565053988029 0 0 0
133 1 4.920906170584395 1.7519201464707717 6.419479197911497 0 0 0
14 1 8.749200331139193 0.809715139731435 5.394769841873785 0 0 0
15 1 9.92906147224554 2.2824695487152904 6.818836902749738 0 0 0
40 1 0.02504062423979525 0.9948544394860044 2.8380153428067127 1 0 0
45 1 11.441719269505686 2.5335344974479606 4.806984809755768 0 0 0
52 1 10.729049377343037 3.839428424153084 8.570767464594322 0 0 0
57 1 8.814928266942664 2.976698895410717 4.664556814703148 0 0 0
1 1 1.9136317522801802 6.375148561401102 5.362155035760612 0 0 0
79 1 0.9031355422993297 4.816779192218997 3.9115371245286696 0 0 0
80 1 2.237619103133978 3.6949461488103386 5.477568605303363 0 0 0
88 1 0.5991645303897167 4.9456706449846655 6.782862528774683 0 0 0
110 1 3.4706264235042235 5.181557536355871 4.106138534316005 0 0 0
26 1 5.577680883985955 5.639232187696901 7.604058710937671 0 0 0
33 1 5.936173085381606 5.463198384509432 4.401838463433327 0 0 0
34 1 7.179967127494627 4.352260561261097 6.1641953043504945 0 0 0
81 1 4.386956492069442 6.643630924367329 5.711733524916085 0 0 0
111 1 6.848456755477272 6.922706430634181 6.031236821180271 0 0 0
140 1 4.726020722357756 4.080095978920887 5.9176318959527965 0 0 0
19 1 9.31463249886356 7.234357105546049 6.353275265796171 0 0 0
48 1 10.879705615589371 6.141472045607222 5.052079996213466 0 0 0
49 1 10.499890667989135 6.2178548665991356 8.202070437930155 0 0 0
58 1 9.663286266086862 4.596969675790785 6.408701356591174 0 0 0
64 1 8.410539150014111 5.782183815157878 4.714417892062406 0 0 0
65 1 8.052733129286205 5.908562486159893 7.893800947874974 0 0 0
86 1 3.187476290792639 7.619601211028029 3.718659867268665 0 0 0
89 1 2.822003995893054 7.864573511129059 6.97921109871324 0 0 0
93 1 0.7193342442541226 7.328339738590737 3.4026682356244775 0 0 0
94 1 1.6272943889743423 8.813200413665063 5.023963919385051 0 0 0
95 1 0.3520873835486007 7.538394088312714 6.679219297321949 0 0 0
99 1 0.44821120336477505 9.817884676402263 3.0859429883896956 0 0 0
106 1 0.09007301843026272 9.933489569229017 6.336597129872643 0 0 0
128 1 2.819066322969915 10.084871358792608 3.411325636442043 0 0 0
129 1 2.6148239556005954 10.338333497564388 6.55376159238764 0 0 0
73 1 5.067915580061117 10.650660094675334 6.852634701690163 0 0 0
87 1 4.118598158085718 9.07304273505347 5.327979600837882 0 0 0
118 1 6.583726959014027 9.351960349242194 5.656326591211303 0 0 0
119 1 5.293224267108141 8.162520904438054 7.308021259258943 0 0 0
123 1 5.404383326076121 10.213812307928308 3.665710049153726 0 0 0
124 1 5.671918973936378 7.85560844451725 4.040770171836911 0 0 0
4 1 8.146694113708962 8.155216647173832 4.364933858054061 0 0 0
5 1 9.04944118211569 9.653395138900507 5.983589857215332 0 0 0
10 1 7.88655439218403 10.499490203257714 4.003946755474667 0 0 0
11 1 7.5147383176465175 10.958623380890263 7.138743505584899 0 0 0
38 1 10.030378797815928 11.29721559093583 7.366036897441712 0 0 0
44 1 10.408095102797855 10.975627381550433 4.476036633953736 0 0 0
55 1 10.237096922863469 8.759253867922407 7.934538930631029 0 0 0
69 1 10.619947555796257 8.513636842266402 4.694564364532679 0 0 0
74 1 0.802534996252761 2.6046730113633005 7.195209611032772 0 0 0
76 1 0.39418081749922873 2.984109803145715 10.636708565042133 0 0 0
103 1 1.030390989061802 0.28406223699273025 7.691730348909956 0 0 0
104 1 1.946226886238093 1.7754456830359546 9.338880901918666 0 0 0
105 1 0.6043079485312597 0.5833249623097679 11.050558104871762 0 0 0
134 1 2.872904521888923 3.279033016063095 10.964617531006082 0 0 0
135 1 3.5403164049046048 0.5639484212066102 8.122305571933781 0 0 0
136 1 3.1207397094314566 0.8941376440632496 11.420862489228185 0 0 0
141 1 3.331896564983779 2.9754675552641694 7.678574625062879 0 0 0
21 1 6.020511416717246 0.8691088961614092 8.443973806205907 0 0 0
22 1 6.955291582130941 2.3803292619423666 10.049493180953888 0 0 0
23 1 5.593435494550286 1.198134500338213 0.14424839931226113 0 0 1
30 1 5.363058000629102 3.58195844061255 11.339458302404255 0 0 0
142 1 4.463718947735645 2.0794517152310896 9.719037334565025 0 0 0
17 1 8.497514625405225 1.1815549144620183 8.688002727542797 0 0 0
36 1 9.39972753079255 2.6798921371602087 10.341025861898878 0 0 0
41 1 10.94176621478992 1.4736645723140294 9.010304902093726 0 0 0
42 1 10.510316484414444 1.791908044638553 0.7214100479843972 0 0 1
46 1 10.34084117316396 4.1964813279020365 0.30891932735186284 0 0 1
53 1 8.067048192261696 1.4908867804782484 0.47077639555154904 0 0 1
59 1 8.32688233864309 3.547396882102926 8.259317454759165 0 0 0
61 1 7.8705000426679925 3.889712369196702 0.02207090979557808 0 0 1
75 1 1.7001905213074928 4.1564061019081295 8.901422068932353 0 0 0
82 1 1.4971177669791602 6.565770468643481 8.545301100819339 0 0 0
83 1 0.16758446983593897 5.394983476006769 10.235320327937917 0 0 0
112 1 3.072215427390069 5.319969062547445 7.22185275177704 0 0 0
114 1 2.624782476464146 5.710793153744284 10.538180064065232 0 0 0
8 1 5.118400417492814 6.046584752265017 10.870040361187668 0 0 0
18 1 6.470051572977146 7.23101986162103 9.237434050133269 0 0 0
29 1 6.7346607807749725 4.783897542623515 9.645329388326662 0 0 0
113 1 3.9764589942062267 6.914436800799505 8.893995892114852 0 0 0
127 1 4.220839807946713 4.487661312531289 9.295573756661751 0 0 0
50 1 10.113307263508089 6.68409252961157 11.510788689003821 0 0 0
60 1 9.185796724534757 5.084907462229282 9.943785820701136 0 0 0
66 1 8.93782612197099 7.541290707737651 9.539164067620293 0 0 0
67 1 7.634723025024577 6.383638555028826 11.203520823589887 0 0 0
96 1 1.2909096558104554 9.108400559261675 8.242355227309655 0 0 0
107 1 2.189071248516906 10.694710477343254 9.78031185613045 0 0 0
121 1 2.421248908503065 8.203254006159007 10.177056658730066 0 0 0
125 1 11.410880688491295 7.864529061314958 9.843480453702442 -1 0 0
130 1 11.166956169945694 10.384157398623602 9.413207952472005 -1 0 0
9 1 4.898790628659539 8.548715392698082 10.506517649605646 0 0 0
12 1 4.689745034328206 10.988833322603933 10.138941955694477 0 0 0
108 1 3.7562217273895286 9.436317224946675 8.542638582388172 0 0 0
120 1 6.22723776310121 9.748463318473044 8.84647606647084 0 0 0
6 1 7.756523684973459 8.453988674613464 7.622513063668441 0 0 0
7 1 8.69666247162284 10.07684739566373 9.110295042844657 0 0 0
39 1 7.157349238486593 11.299835044201354 10.457078657565898 0 0 0
62 1 7.379507709306005 8.893669045965808 10.835322280435815 0 0 0
71 1 9.83491738061658 9.196063339637643 11.120159308444968 0 0 0
143 1 9.596511132658005 0.2791489363913894 10.738159378713771 0 1 0

Velocities

91 0 0 0
100 0 0 0
137 0 0 0
24 0 0 0
72 0 0 0
131 0 0 0
13 0 0 0
37 0 0 0
43 0 0 0
77 0 0 0
78 0 0 0
98 0 0 0
126 0 0 0
25 0 0 0
31 0 0 0
32 0 0 0
116 0 0 0
138 0 0 0
47 0 0 0
56 0 0 0
63 0 0 0
70 0 0 0
84 0 0 0
92 0 0 0
97 0 0 0
109 0 0 0
115 0 0 0
2 0 0 0
85 0 0 0
117 0 0 0
122 0 0 0
3 0 0 0
16 0 0 0
51 0 0 0
54 0 0 0
68 0 0 0
90 0 0 0
101 0 0 0
102 0 0 0
132 0 0 0
139 0 0 0
20 0 0 0
27 0 0 0
28 0 0 0
35 0 0 0
133 0 0 0
14 0 0 0
15 0 0 0
40 0 0 0
45 0 0 0
52 0 0 0
57 0 0 0
1 0 0 0
79 0 0 0
80 0 0 0
88 0 0 0
110 0 0 0
26 0 0 0
33 0 0 0
34 0 0 0
81 0 0 0
111 0 0 0
140 0 0 0
19 0 0 0
48 0 0 0
49 0 0 0
58 0 0 0
64 0 0 0
65 0 0 0
86 0 0 0
89 0 0 0
93 0 0 0
94 0 0 0
95 0 0 0
99 0 0 0
106 0 0 0
128 0 0 0
129 0 0 0
73 0 0 0
87 0 0 0
118 0 0 0
119 0 0 0
123 0 0 0
124 0 0 0
4 0 0 0
5 0 0 0
10 0 0 0
11 0 0 0
38 0 0 0
44 0 0 0
55 0 0 0
69 0 0 0
74 0 0 0
76 0 0 0
103 0 0 0
104 0 0 0
105 0 0 0
134 0 0 0
135 0 0 0
136 0 0 0
141 0 0 0
21 0 0 0
22 0 0 0
23 0 0 0
30 0 0 0
142 0 0 0
17 0 0 0
36 0 0 0
41 0 0 0
42 0 0 0
46 0 0 0
53 0 0 0
59 0 0 0
61 0 0 0
75 0 0 0
82 0 0 0
83 0 0 0
112 0 0 0
114 0 0 0
8 0 0 0
18 0 0 0
29 0 0 0
113 0 0 0
127 0 0 0
50 0 0 0
60 0 0 0
66 0 0 0
67 0 0 0
96 0 0 0
107 0 0 0
121 0 0 0
125 0 0 0
130 0 0 0
9 0 0 0
12 0 0 0
108 0 0 0
120 0 0 0
6 0 0 0
7 0 0 0
39 0 0 0
62 0 0 0
71 0 0 0
143 0 0 0
