LAMMPS data file via write_data, version 22 Jul 2025, timestep = 171, units = metal

147 atoms
3 atom types

0 11.396901 xlo xhi
0 12.680864 ylo yhi
0 12.228525 zlo zhi
0 0 0 xy xz yz

Masses

1 63.55
2 63.55
3 63.55

Atoms # atomic

76 1 3.5367453435774134 2.4037367485334062 0.3198218409235887 0 0 0
77 1 2.0575332076321815 1.5185339420831927 2.2771812519581673 0 0 0
83 1 2.3769033984174137 4.764378100798068 1.049591791372797 0 0 0
90 1 1.035296342582292 3.8632899744022318 2.9607632237361745 0 0 0
99 1 0.78407458205324 2.867838560920982 0.6640503128722649 0 0 0
19 1 6.018386097639853 2.9542517394859162 2.750310022838021 0 0 0
29 1 7.625532384449998 0.12462083608043262 2.4811126309965585 0 0 0
113 1 4.874278530784501 4.342249876790901 0.9143610466590921 0 0 0
114 1 3.5536807914269937 3.3768605675594716 2.8018762627698797 0 0 0
144 1 6.718443460000756 1.5167388282528953 0.7360695205285621 0 0 0
145 1 4.635508409054213 1.0418511662771464 2.1408686730124864 0 0 0
28 1 9.275833714249185 0.9793145783002354 0.6350008311697461 0 0 0
34 1 7.296428749488045 3.9076863987637065 0.7885911576091061 0 0 0
61 1 10.867047352469815 1.9571914724811699 2.510163147735603 0 0 0
62 1 10.173739673313955 12.281000364861601 2.371334894573244 0 -1 0
66 1 9.69620314379016 3.3934024554741447 0.7791217122418526 0 0 0
67 1 8.417520749035475 2.4444805931233313 2.645201750287611 0 0 0
88 1 3.89229653191965 6.719568993819172 1.364689499026781 0 0 0
89 1 2.590231609617022 5.78467481402985 3.322643471561144 0 0 0
103 1 11.300354713702646 5.321093230098335 1.1885187927423913 -1 0 0
107 1 1.4519976917106114 7.2203165041021204 1.568602267493625 0 0 0
132 1 1.602842684216644 8.174494778048675 3.9902810548885235 0 0 0
4 1 7.517368062527926 4.920668358045554 3.1364375735303205 0 0 0
10 1 6.586392673736565 7.49954382188492 3.643912128287954 0 0 0
120 1 6.363834844137974 6.319936894805095 1.3009032226383266 0 0 0
126 1 4.094848777030163 7.720182554790457 3.7270416276853657 0 0 0
127 1 5.0794619049092296 5.372513721529037 3.211155972637899 0 0 0
3 1 8.83222437395009 5.824373013527639 1.187573179918334 0 0 0
42 1 9.032044013613728 6.8534117065993065 3.5457437378793792 0 0 0
55 1 9.957634678671493 4.3966730248222365 3.0635426130299983 0 0 0
56 1 0.10503331181797641 6.320904564557618 3.5069354215294375 1 0 0
26 1 3.151010417561789 0.14865223467583266 4.10310922217383 0 1 0
82 1 1.3881411884348736 11.83757134406341 2.2733223072009436 0 0 0
92 1 0.4946626722567356 9.556579979412751 2.2006807906757286 0 0 0
131 1 2.9410646011576382 9.13094721070975 1.9780896626818105 0 0 0
137 1 3.037573659971177 12.620880935005276 0.44673683637550976 0 0 0
138 1 2.3211859291033683 10.52854005812041 4.021926385691952 0 0 0
142 1 0.6526696984149986 0.6182055480182823 4.245197937226507 0 1 0
20 1 3.989684864525737 11.327426521590247 2.2040729146481577 0 0 0
21 1 4.867412991621062 10.00744780377813 3.9320186498839043 0 0 0
35 1 6.89307399670587 10.416095343775307 2.523340871493548 0 0 0
58 1 5.687909562707612 12.307983212304737 3.984804480339635 0 0 0
125 1 5.358687374478913 8.6872966047894 1.749831022939945 0 0 0
15 1 8.305296328985783 11.377584049689284 0.5069318640629445 0 0 0
16 1 7.884500211469277 8.196550979673269 1.6811615274274965 0 0 0
41 1 10.38387560740412 7.699886610254395 1.6444010404460399 0 0 0
47 1 10.767431621627958 10.91849609427466 0.33317838287307483 0 0 0
48 1 9.415704665233577 9.942949472717508 2.3630911966861703 0 0 0
73 1 8.505981788548338 11.340084691549912 4.209534290272442 0 0 0
97 1 11.170294417180413 11.048097648559924 4.152489843951731 0 0 0
78 1 2.198281268480274 2.4609210528855283 4.729462209270715 0 0 0
79 1 3.331037560032571 1.0770578499509715 6.596554236194845 0 0 0
84 1 3.756101482754208 4.3649017715552825 5.10653168235594 0 0 0
85 1 2.415920866041142 3.4383716819922503 7.040107408287922 0 0 0
100 1 11.093153502352866 2.9602121129484646 4.870840155454369 -1 0 0
101 1 0.8046360004545318 1.5139322359407827 6.656130851840595 0 0 0
17 1 7.357204860965581 2.4810601737332694 6.945213368926191 0 0 0
115 1 6.2196436008193965 3.9141844045046437 5.063129427685432 0 0 0
116 1 4.8950989776481375 2.952423117623253 7.027727981686428 0 0 0
129 1 5.84342657069379 0.5726049030896774 6.520796482211954 0 0 0
130 1 4.697222073464788 1.9680819334800204 4.652824096999689 0 0 0
18 1 8.644488039960754 3.432859849673593 4.968756359869245 0 0 0
30 1 7.1671441597272585 1.4713655127476883 4.606284249038279 0 0 0
31 1 8.386681859711894 0.0733900177663706 6.465596276425774 0 0 0
63 1 9.589484932346956 0.9418664375671921 4.466978749175663 0 0 0
64 1 10.95822602319178 0.6736701421241553 8.675931901328202 0 0 0
68 1 11.340645279026894 4.058627653266168 7.186522122623051 0 0 0
69 1 9.802369180967982 2.075355517295694 6.845930861051345 0 0 0
104 1 1.2676999895734913 4.8805603521757215 5.240461196889407 0 0 0
108 1 0.1660104639207965 7.247744691582621 6.015882487057265 0 0 0
109 1 2.8316230064467054 6.807429183558789 5.620968818479133 0 0 0
111 1 1.63819633818598 5.946095549461395 7.466804142000762 0 0 0
134 1 1.6724094750694156 8.417518302889048 7.711890591437878 0 0 0
6 1 6.479307748795275 4.935644432907627 7.303018035845093 0 0 0
12 1 6.659372972070353 7.430205215183563 7.408165903209691 0 0 0
110 1 4.130837744805311 7.893580626972414 7.567504386492407 0 0 0
121 1 5.309664982010904 6.350009803503212 5.4738676633588375 0 0 0
122 1 4.097438174136057 5.425932207593988 7.3055833018697856 0 0 0
5 1 7.71891017403045 5.979497409016846 5.418085063312377 0 0 0
44 1 9.134628665875944 7.123196843639392 7.053733553679021 0 0 0
45 1 8.865483256161417 4.496545234195198 7.238817633821677 0 0 0
54 1 10.158626414060894 5.383076231040745 5.3604347284411 0 0 0
23 1 2.9393059642560395 10.524463046846675 7.952913987821035 0 0 0
27 1 2.0277277561243214 0.21679452544345384 8.53466334038278 0 1 0
91 1 0.7438888064445343 9.670994882596434 5.888068872082995 0 0 0
133 1 3.2192693184719308 9.219031883233036 5.786988666693989 0 0 0
139 1 1.709784372909954 11.910669476010506 6.080443886074879 0 0 0
140 1 0.47896532383904183 10.986418318018007 8.08724380226705 0 0 0
22 1 4.24488970358058 11.443383585909608 5.962851135773456 0 0 0
37 1 6.7699177927392435 10.9443001919069 5.882104944438279 0 0 0
59 1 4.497934353334947 12.412426226116729 8.461840958240629 0 0 0
72 1 5.4203024472991235 10.034547682480323 7.850856281364318 0 0 0
75 1 5.693926089384902 8.747447920273567 5.709503933379522 0 0 0
147 1 6.984886511517499 11.898889348043287 8.374667010805851 0 0 0
11 1 8.168173315675766 8.772205155420272 5.188313695855314 0 0 0
43 1 10.493830146850316 8.665394304595203 4.255428871801227 0 0 0
49 1 9.769393363983996 10.590132490391829 6.122078235366043 0 0 0
50 1 7.972471103206066 9.540286673631018 7.674225637823016 0 0 0
94 1 10.543463119583562 8.952238540385226 7.756392332470788 0 0 0
98 1 9.447303658774777 11.443435649970375 8.387798461258896 0 0 0
81 1 2.0421091843197634 1.229081340108621 10.87038636994483 0 0 0
86 1 2.964690921297654 4.578973982578315 9.147908970709809 0 0 0
87 1 2.0336594124950236 3.69272916049404 11.068266604492312 0 0 0
102 1 1.0837668878967197 2.613998961400425 8.990789601463257 0 0 0
105 1 0.674192871004666 5.063981135930343 9.368120001006153 0 0 0
106 1 10.952006006536784 4.276406366127854 11.212089191739043 -1 0 0
33 1 7.186186643485732 0.16393780609577263 10.858732458416906 0 0 0
80 1 3.6114757837069265 2.12690032051246 9.120440579314163 0 0 0
117 1 5.242244421285759 4.0846443420686995 9.236128930517287 0 0 0
118 1 5.760321806020384 2.840424608861784 11.20561185189579 0 0 0
119 1 4.69903207124973 0.6417688095700612 10.96932219708547 0 0 0
128 1 6.074081488083791 1.5882257476397919 8.972426800452492 0 0 0
2 1 8.36598212746024 2.347732880906558 11.098473357888995 0 0 0
8 1 7.577974757234196 3.60179998363178 9.18769886135786 0 0 0
32 1 8.529218546016601 1.1515376795104855 8.86837289972568 0 0 0
65 1 9.638387334870155 12.377619027141256 10.741194435524811 0 -1 0
70 1 10.009587511788224 3.2122788127479707 9.14314702525771 0 0 0
71 1 10.921953036844698 1.8120617934570824 10.94189715608335 0 0 0
36 1 2.76808747987551 8.142125444191294 11.80921887392565 0 0 0
93 1 0.14685497722138577 7.553450416355214 9.542218313728762 0 0 0
112 1 1.2506222963904805 6.189919515535967 11.490038532266343 0 0 0
136 1 0.3170612046875153 8.591269578846278 11.935947765779442 0 0 0
146 1 2.612722394581545 7.039930496830157 9.534934735742347 0 0 0
9 1 6.180185739837908 5.291345456710518 11.213547509962268 0 0 0
14 1 5.196321096969823 7.66437851318292 11.633133180082453 0 0 0
123 1 5.061550970711232 6.567139896779848 9.35627234682972 0 0 0
124 1 3.7179589819937213 5.597746148683945 11.299102653729884 0 0 0
1 1 10.161504140988834 6.720010682808211 11.465500019428 0 0 0
7 1 7.489775654273576 6.125201681149958 9.245176951496093 0 0 0
39 1 9.860274304026577 5.776156120450543 9.05766272510095 0 0 0
40 1 8.600776147758289 4.830293861889598 11.080162169636688 0 0 0
53 1 7.677593027009484 7.229968730738283 11.543743571578428 0 0 0
24 1 3.1232816062617736 11.487151184009843 10.363915958509555 0 0 0
25 1 1.806729707974151 10.517720656993435 0.1412584989025497 0 0 1
135 1 1.6184441163736552 9.546399523927269 9.960368333232374 0 0 0
141 1 0.6642966356845911 11.909449130320972 10.505401850861116 0 0 0
143 1 0.4332796561556299 0.44215413950339433 0.5039041226077654 0 1 1
13 1 6.528617745862686 8.604106037217534 9.664785858155733 0 0 0
38 1 5.611447383471041 10.995679100967706 10.288523220251822 0 0 0
52 1 6.7255071128276125 9.585861107034711 12.108436032575426 0 0 0
57 1 4.2458343933535385 10.107879313557113 12.190283821959913 0 0 0
60 1 5.821819978424482 11.903207711006718 0.6351006637665826 0 0 1
74 1 4.061971892113683 9.083848511259161 9.80550715270931 0 0 0
46 1 8.997972314158934 8.116886458037328 9.563445292262942 0 0 0
51 1 8.08336753111009 10.475436132180539 10.21263298987307 0 0 0
95 1 10.57028159628558 9.976533164448652 10.107854211588972 0 0 0
96 1 9.231506911343084 9.07793264564973 12.021525509174472 0 0 0

Velocities

76 0 0 0
77 0 0 0
83 0 0 0
90 0 0 0
99 0 0 0
19 0 0 0
29 0 0 0
113 0 0 0
114 0 0 0
144 0 0 0
145 0 0 0
28 0 0 0
34 0 0 0
61 0 0 0
62 0 0 0
66 0 0 0
67 0 0 0
88 0 0 0
89 0 0 0
103 0 0 0
107 0 0 0
132 0 0 0
4 0 0 0
10 0 0 0
120 0 0 0
126 0 0 0
127 0 0 0
3 0 0 0
42 0 0 0
55 0 0 0
56 0 0 0
26 0 0 0
82 0 0 0
92 0 0 0
131 0 0 0
137 0 0 0
138 0 0 0
142 0 0 0
20 0 0 0
21 0 0 0
35 0 0 0
58 0 0 0
125 0 0 0
15 0 0 0
16 0 0 0
41 0 0 0
47 0 0 0
48 0 0 0
73 0 0 0
97 0 0 0
78 0 0 0
79 0 0 0
84 0 0 0
85 0 0 0
100 0 0 0
101 0 0 0
17 0 0 0
115 0 0 0
116 0 0 0
129 0 0 0
130 0 0 0
18 0 0 0
30 0 0 0
31 0 0 0
63 0 0 0
64 0 0 0
68 0 0 0
69 0 0 0
104 0 0 0
108 0 0 0
109 0 0 0
111 0 0 0
134 0 0 0
6 0 0 0
12 0 0 0
110 0 0 0
121 0 0 0
122 0 0 0
5 0 0 0
44 0 0 0
45 0 0 0
54 0 0 0
23 0 0 0
27 0 0 0
91 0 0 0
133 0 0 0
139 0 0 0
140 0 0 0
22 0 0 0
37 0 0 0
59 0 0 0
72 0 0 0
75 0 0 0
147 0 0 0
11 0 0 0
43 0 0 0
49 0 0 0
50 0 0 0
94 0 0 0
98 0 0 0
81 0 0 0
86 0 0 0
87 0 0 0
102 0 0 0
105 0 0 0
106 0 0 0
33 0 0 0
80 0 0 0
117 0 0 0
118 0 0 0
119 0 0 0
128 0 0 0
2 0 0 0
8 0 0 0
32 0 0 0
65 0 0 0
70 0 0 0
71 0 0 0
36 0 0 0
93 0 0 0
112 0 0 0
136 0 0 0
146 0 0 0
9 0 0 0
14 0 0 0
123 0 0 0
124 0 0 0
1 0 0 0
7 0 0 0
39 0 0 0
40 0 0 0
53 0 0 0
24 0 0 0
25 0 0 0
135 0 0 0
141 0 0 0
143 0 0 0
13 0 0 0
38 0 0 0
52 0 0 0
57 0 0 0
60 0 0 0
74 0 0 0
46 0 0 0
51 0 0 0
95 0 0 0
96 0 0 0
