LAMMPS data file via write_data, version 22 Jul 2025, timestep = 189, units = metal

139 atoms
3 atom types

0 11.396901 xlo xhi
0 12.680864 ylo yhi
0 12.228525 zlo zhi
0 0 0 xy xz yz

Masses

1 63.55
2 63.55
3 63.55

Atoms # atomic

90 1 2.1747300615312173 1.5272356177913098 0.8419639455861605 0 0 0
94 1 3.546452997830043 3.742472138774367 0.3338896805858298 0 0 0
96 1 0.5040897418553694 0.9249503954224036 2.93408915395368 0 0 0
127 1 4.248373194318061 2.76314865484215 2.5042984833494377 0 0 0
130 1 3.092781352603404 0.23819292862006866 2.8449428237341325 0 0 0
34 1 6.72749249040086 2.061227653050231 2.7378089572233733 0 0 0
70 1 8.488175302361478 2.6308957645291993 0.8519728227796338 0 0 0
105 1 4.645244469289428 0.941163047549388 0.7928417713475444 0 0 0
108 1 7.056875169659812 0.32952777756146445 0.8991986194919568 0 0 0
126 1 6.030004923060023 3.262843934272396 0.6308971143785971 0 0 0
3 1 9.284384544962283 1.3955817497956609 2.94183691657815 0 0 0
4 1 10.988868859918707 2.095735479970056 0.9407962311012517 0 0 0
7 1 9.664421763513857 1.2480806519165735 11.128094930735228 0 0 -1
46 1 11.0570094697885 3.2729822155177937 3.3847259065093525 0 0 0
84 1 0.7681297030211788 5.927625303262051 2.7791833165885174 0 0 0
100 1 2.3289487132257114 6.388773452745946 0.7967990656781073 0 0 0
101 1 1.71259359627329 3.639684641603407 2.136471262257231 0 0 0
122 1 2.194407643483966 8.050402997053578 2.7216764389521524 0 0 0
133 1 3.479266025232725 5.2869624431177895 2.751801371948981 0 0 0
23 1 7.845165406380389 5.3181100016796385 1.0783764610755335 0 0 0
24 1 6.055735948791832 4.634726010641248 2.8742754212710286 0 0 0
30 1 4.665356854877041 7.5644946769055545 2.7692732512612177 0 0 0
132 1 5.13885427693483 5.927056867562015 0.8864604718275699 0 0 0
36 1 10.47756133817952 4.745778646927503 1.3486230248538777 0 0 0
40 1 9.64721714556956 6.539057797938074 2.9078418892155886 0 0 0
43 1 10.530298747877076 5.202104131984185 4.87627538544344 0 0 0
54 1 8.605062352119859 3.9882458325663057 3.0754123539250062 0 0 0
61 1 7.11961780937414 7.023481239727881 2.83396154454774 0 0 0
73 1 1.47335458064814 12.22135873528309 4.687696442727054 0 0 0
78 1 11.222025512021563 8.783265951535807 3.0561835716497945 -1 0 0
79 1 1.478525113201192 10.708571701290595 2.803707882878129 0 0 0
85 1 1.29283271652878 9.399063965169294 0.7250389250580688 0 0 0
116 1 3.8888492012683753 10.17791045815328 2.807910265222439 0 0 0
10 1 7.998823312832421 11.804004192456285 3.0294752184745835 0 0 0
15 1 6.331874068958472 9.684833767173922 2.9030900878079575 0 0 0
16 1 7.806663131850023 10.382025949075965 0.9150167928777403 0 0 0
29 1 6.180839062767463 8.30981123413297 0.8259025373477114 0 0 0
111 1 5.544660887384944 12.348315537787945 2.928349462399007 0 0 0
117 1 5.365108336975685 10.909609367713108 0.828281263554304 0 0 0
123 1 3.704854653508307 8.750364538076308 0.7617338553523223 0 0 0
38 1 10.261018403214644 9.896802367829673 0.9320782080357838 0 0 0
50 1 9.475296992076009 12.479800962152284 0.9661863935130405 0 0 0
59 1 8.648368057862493 7.773210062041941 0.9980832477121454 0 0 0
65 1 10.437684317155206 11.308149109770756 11.069244101208007 0 0 -1
66 1 8.78235551455317 9.230038510361931 2.9908715536297406 0 0 0
91 1 2.4583148476276064 2.2984109372309103 4.154633665195649 0 0 0
92 1 0.4457759807548987 1.9819563278046237 5.473281243631972 0 0 0
97 1 0.08699873515994565 4.009572818841262 6.944457760384947 0 0 0
103 1 1.6437655266305544 4.633930525622216 4.711767088929307 0 0 0
129 1 2.6582545400829742 3.5209387965053707 6.709984411898009 0 0 0
19 1 6.818450690786293 3.413417676134964 4.955726594530496 0 0 0
20 1 5.113027289180309 2.7834674028676667 6.8685385623860205 0 0 0
106 1 4.900075640684914 1.4892470665436777 4.607581633971959 0 0 0
107 1 7.45429875873654 0.875796680327383 4.806560708163817 0 0 0
128 1 4.29613368525954 4.072855348878631 4.7953462880508795 0 0 0
2 1 9.330605771512081 2.76451369479112 5.180847672282777 0 0 0
6 1 10.040482513735636 0.2154935460135083 5.067093724694294 0 0 0
25 1 7.595105931789527 2.198984589639678 7.0856981052890875 0 0 0
45 1 10.106057914837177 1.7286584136983247 7.355568514187863 0 0 0
82 1 0.9778614540462205 8.71327551045651 6.933409855238346 0 0 0
88 1 10.457783948145858 5.1478777379018945 9.145520916399457 -1 0 0
102 1 0.7243733322515036 7.293067924896563 4.876092544305506 0 0 0
120 1 3.392745674453414 8.264120344977732 6.862567345413734 0 0 0
135 1 1.7484979175087432 6.096698449787564 6.862018976674038 0 0 0
26 1 5.629114386242932 6.293351616212183 4.801789853921626 0 0 0
32 1 5.822187884347672 7.701402226037504 6.928830875155849 0 0 0
33 1 4.186946207740753 5.6389206537258705 6.839519137078498 0 0 0
134 1 3.164228812361608 6.795757642339447 4.7694084330226625 0 0 0
39 1 10.69083081348993 6.565819977059875 7.007275305470034 0 0 0
42 1 9.020466876469884 4.478182257322577 7.019175323742967 0 0 0
55 1 8.078267416249618 5.738804839780993 4.865117733374002 0 0 0
56 1 6.5876335729407325 5.022702177147842 6.909879933670948 0 0 0
62 1 8.242904596412501 7.090504830932604 7.013139465523053 0 0 0
72 1 0.5236715615134044 12.466048419497636 6.867425857102496 0 0 0
76 1 2.5145890208441317 10.918228596032238 6.88126852698807 0 0 0
77 1 3.9235980538424378 11.56910537797593 4.871900086474675 0 0 0
83 1 2.3088436634828944 9.432149976056435 4.824432010303532 0 0 0
89 1 11.333428054365225 10.306973832666413 5.2961240548504005 -1 0 0
110 1 2.825511477634511 0.92723142803938 6.241574298891558 0 1 0
9 1 5.099139222598352 0.128734949242406 6.722510689884548 0 1 0
13 1 7.502068533492885 9.697946438863761 7.052700213105816 0 0 0
31 1 7.266274109756859 8.393412026338503 4.93123984913684 0 0 0
114 1 5.029724621551777 10.276795940504506 6.928132885823944 0 0 0
115 1 6.397995058207573 11.06933508292157 4.977989964268437 0 0 0
121 1 4.800824960747455 8.918271394988722 4.8489246252560925 0 0 0
14 1 8.855897099381101 10.549019269355862 5.098751284624332 0 0 0
49 1 7.45928353024794 12.274103976893816 6.893827001217506 0 0 0
53 1 9.925637441764735 9.078520480369534 7.143424998343767 0 0 0
67 1 10.476004800810815 11.366398657697854 3.0829549072806004 0 0 0
68 1 9.715737452093457 7.914434087572941 4.993503946637577 0 0 0
69 1 9.729874031636713 11.594049583081786 7.217290035560347 0 0 0
93 1 1.273984225431706 1.92090441492557 7.975524845159319 0 0 0
98 1 1.5027884320973535 4.665658338035918 8.936621921587196 0 0 0
99 1 1.030336533765192 3.8491099307388845 11.986448402513275 0 0 0
125 1 0.767277197728068 0.8168763354464821 11.133655558780271 0 0 0
138 1 2.391118454117854 2.6588023695503065 10.350199540581473 0 0 0
21 1 6.400571295919049 3.5384291351397508 8.993074250280571 0 0 0
22 1 4.83063700073398 2.278040151725412 10.753904227573079 0 0 0
71 1 6.076927560300793 0.9792379795163524 8.829844876040701 0 0 0
104 1 3.2120395749212074 0.25917042853000577 10.959964867884054 0 0 0
124 1 3.6828912381353662 1.4843952356457715 8.557174277496449 0 0 0
131 1 3.9647012514418614 4.109083553577901 8.856246041956238 0 0 0
5 1 8.463796206548984 0.4164002764231866 9.004452667110206 0 0 0
35 1 8.842913014383841 3.010448171696595 9.209800623096477 0 0 0
44 1 11.288750088893979 2.7565185109330455 9.698421761297617 0 0 0
47 1 10.884166296722986 0.16625997301075834 9.141270474695498 0 0 0
60 1 7.238011412004665 1.7079630966781834 10.970796367276524 0 0 0
80 1 2.205847051862748 8.038087711908833 11.02123137792447 0 0 0
86 1 0.4811578449803675 6.079830593324313 11.088199626962323 0 0 0
87 1 0.770615735248862 7.3294954517438855 8.966888995148304 0 0 0
137 1 2.8937771280301954 5.409126481754892 10.849667112750469 0 0 0
17 1 7.028609740240708 6.801188153699024 11.23261009975662 0 0 0
27 1 5.623324454573702 6.255105251031573 8.960695816410121 0 0 0
28 1 5.272499546655765 4.809307478003455 10.930221258116184 0 0 0
118 1 4.632698604698307 7.441715402903533 11.053704161976004 0 0 0
136 1 3.209722555422643 6.861430819783463 8.895596782406908 0 0 0
18 1 7.286744442224859 8.258716447162948 9.118102077234008 0 0 0
41 1 9.991792511778362 3.8457616688634704 11.389573978615685 0 0 0
57 1 8.027256166335812 5.652356971279024 9.101729906929547 0 0 0
58 1 7.627688001893968 4.228454617474051 11.113346786418075 0 0 0
63 1 9.701288717261916 7.6492576084451605 9.194523298836193 0 0 0
64 1 9.444612165298786 6.303389429394317 11.361638502424306 0 0 0
1 1 0.11247824151721438 10.370085741500038 8.718046983424603 0 0 0
74 1 1.4770396524445266 10.888229836555846 10.933575818457946 0 0 0
75 1 1.8841420911243607 12.328267709039448 8.935654542850104 0 0 0
81 1 2.440365916539891 9.48462489636022 8.965837691997383 0 0 0
95 1 0.5080002906404912 12.033686871866541 0.9060084500860155 0 0 1
109 1 2.9431228835240772 11.486691679617447 0.7796286113551858 0 0 1
112 1 3.8855797859434777 10.229911251303173 10.981399748397713 0 0 0
8 1 5.596875051875646 12.323445656718576 10.976621788891334 0 0 0
11 1 6.32698893258952 9.68782078409485 11.009946210843918 0 0 0
12 1 6.602893710926698 11.071226657625715 8.94504977638961 0 0 0
113 1 4.19948972068668 11.608938101875868 8.880476010835714 0 0 0
119 1 4.879321084502803 8.912887775397005 9.003992180952604 0 0 0
37 1 11.17588678728794 7.3586228282542825 0.8954935697096043 0 0 1
48 1 8.006285045628475 11.75937789469984 11.081634164896158 0 0 0
51 1 8.724609827425242 9.001730243209527 11.175086553961814 0 0 0
52 1 8.987405479068997 10.330529991935933 9.166528221482109 0 0 0
139 1 11.21143986996776 8.815765096688224 10.88390985624358 0 0 0

Velocities

90 0 0 0
94 0 0 0
96 0 0 0
127 0 0 0
130 0 0 0
34 0 0 0
70 0 0 0
105 0 0 0
108 0 0 0
126 0 0 0
3 0 0 0
4 0 0 0
7 0 0 0
46 0 0 0
84 0 0 0
100 0 0 0
101 0 0 0
122 0 0 0
133 0 0 0
23 0 0 0
24 0 0 0
30 0 0 0
132 0 0 0
36 0 0 0
40 0 0 0
43 0 0 0
54 0 0 0
61 0 0 0
73 0 0 0
78 0 0 0
79 0 0 0
85 0 0 0
116 0 0 0
10 0 0 0
15 0 0 0
16 0 0 0
29 0 0 0
111 0 0 0
117 0 0 0
123 0 0 0
38 0 0 0
50 0 0 0
59 0 0 0
65 0 0 0
66 0 0 0
91 0 0 0
92 0 0 0
97 0 0 0
103 0 0 0
129 0 0 0
19 0 0 0
20 0 0 0
106 0 0 0
107 0 0 0
128 0 0 0
2 0 0 0
6 0 0 0
25 0 0 0
45 0 0 0
82 0 0 0
88 0 0 0
102 0 0 0
120 0 0 0
135 0 0 0
26 0 0 0
32 0 0 0
33 0 0 0
134 0 0 0
39 0 0 0
42 0 0 0
55 0 0 0
56 0 0 0
62 0 0 0
72 0 0 0
76 0 0 0
77 0 0 0
83 0 0 0
89 0 0 0
110 0 0 0
9 0 0 0
13 0 0 0
31 0 0 0
114 0 0 0
115 0 0 0
121 0 0 0
14 0 0 0
49 0 0 0
53 0 0 0
67 0 0 0
68 0 0 0
69 0 0 0
93 0 0 0
98 0 0 0
99 0 0 0
125 0 0 0
138 0 0 0
21 0 0 0
22 0 0 0
71 0 0 0
104 0 0 0
124 0 0 0
131 0 0 0
5 0 0 0
35 0 0 0
44 0 0 0
47 0 0 0
60 0 0 0
80 0 0 0
86 0 0 0
87 0 0 0
137 0 0 0
17 0 0 0
27 0 0 0
28 0 0 0
118 0 0 0
136 0 0 0
18 0 0 0
41 0 0 0
57 0 0 0
58 0 0 0
63 0 0 0
64 0 0 0
1 0 0 0
74 0 0 0
75 0 0 0
81 0 0 0
95 0 0 0
109 0 0 0
112 0 0 0
8 0 0 0
11 0 0 0
12 0 0 0
113 0 0 0
119 0 0 0
37 0 0 0
48 0 0 0
51 0 0 0
52 0 0 0
139 0 0 0
