LAMMPS data file via write_data, version 22 Jul 2025, timestep = 229, units = metal

135 atoms
3 atom types

0 11.396901 xlo xhi
0 12.680864 ylo yhi
0 12.228525 zlo zhi
0 0 0 xy xz yz

Masses

1 63.55
2 63.55
3 63.55

Atoms # atomic

92 1 0.13438604147687536 3.468117544339752 3.6893054887359837 0 0 0
98 1 0.13438548074568452 0.9319463123466866 3.6893064491445484 0 0 0
99 1 1.0042963066261121 2.200060383017181 1.4984916087816902 0 0 0
102 1 2.595066107998465 0.931774801671184 3.2678541644624763 0 0 0
130 1 2.595063162849319 3.4679519789586513 3.26785268159207 0 0 0
33 1 5.771211459342144 3.4680759325599393 0.7237876354856452 0 0 0
84 1 3.5046515291499603 2.199781126267676 1.2514721500560682 0 0 0
106 1 5.771213403813104 0.9319046888983732 0.723788887767513 0 0 0
107 1 8.293480313597072 0.9319262255242016 0.3168852075746153 0 0 0
2 1 7.374181467541701 2.1999845850805757 2.514549863621028 0 0 0
8 1 7.37417956221602 12.344674692428717 2.514546343264872 0 -1 0
9 1 9.891928857240847 2.2000251172315655 1.9987251859871167 0 0 0
44 1 9.05976986234566 3.468088941230835 4.194783336553028 0 0 0
47 1 9.05977243594228 0.9319161694160214 4.194784366646311 0 0 0
80 1 0.13438274607160244 8.540465151531137 3.6893045810682636 0 0 0
86 1 0.13437827811307854 6.0042908819233975 3.6893057122303645 0 0 0
87 1 1.0042982083545278 7.2724103314927255 1.4984938736443176 0 0 0
93 1 1.0042929653096475 4.736235376056448 1.498493063445595 0 0 0
124 1 2.59506251893996 6.004126128618199 3.267849605352217 0 0 0
20 1 5.7712122640810835 8.540421646312627 0.7237888837489403 0 0 0
26 1 5.771209517441343 6.004249256097915 0.7237871706881149 0 0 0
27 1 8.29348050823137 6.004269134752959 0.31688042759956 0 0 0
68 1 8.293480542157594 3.4680976727528074 0.3168839861379864 0 0 0
125 1 3.504645448312601 7.272126899207484 1.2514765544231283 0 0 0
131 1 3.5046497395311142 4.735953015325794 1.2514708151540517 0 0 0
3 1 9.891928290912581 4.736199353537208 1.9987262694938868 0 0 0
38 1 9.059770275760409 8.540433147924718 4.194783966716897 0 0 0
41 1 9.059768951276386 6.0042604406442655 4.19478290601206 0 0 0
58 1 7.374175613002703 7.272330310980092 2.5145467066920784 0 0 0
64 1 7.374177554463576 4.736158987568708 2.5145503685347608 0 0 0
65 1 9.891925341665669 7.2723725484804085 1.9987262180402185 0 0 0
74 1 0.13438634326442545 11.076636430038413 3.6893042880838505 0 0 0
75 1 1.0042981566519624 12.344753122756506 1.4984929426712892 0 0 0
81 1 1.004298732743861 9.808581906278103 1.4984926776423941 0 0 0
112 1 2.5950640846638247 11.07647314660889 3.267853082315165 0 0 0
119 1 2.595060241137087 8.540294347822382 3.267852271914222 0 0 0
14 1 5.771211457965908 11.076596455222258 0.7237905193623421 0 0 0
15 1 8.29348373858791 11.076614601991228 0.316885637606746 0 0 0
21 1 8.293480344559867 8.540444181560487 0.3168822061810895 0 0 0
113 1 3.5046476453357633 12.34446944479047 1.251487039949083 0 0 0
134 1 3.5046486685631435 9.808298229085876 1.2514809496049424 0 0 0
52 1 7.374176574166951 9.808500878106354 2.514544620166286 0 0 0
53 1 9.89193229492232 12.344715494361232 1.9987249185459612 0 0 0
59 1 9.891931131264418 9.80854508410361 1.9987232737077538 0 0 0
67 1 9.059771342615075 11.076606663994593 4.194785086872799 0 0 0
90 1 1.023459828001189 3.46807358954061 7.5664418933812545 0 0 0
96 1 1.023460322424218 0.9319037459276448 7.566443417360801 0 0 0
97 1 1.8088053849690133 2.199923799105615 5.389392959657208 0 0 0
103 1 3.5234414689398705 0.9318601838362656 6.949003559147996 0 0 0
128 1 3.523441433788815 3.4680330601734286 6.949002950896169 0 0 0
30 1 5.82316294656581 2.200033299884576 6.959882067002806 0 0 0
104 1 5.823164876835757 12.344724655933591 6.959885183411048 0 -1 0
105 1 6.621778197831223 0.9318719347579281 4.794060716504784 0 0 0
118 1 4.327864343790913 2.1999173274268347 4.7924808174898255 0 0 0
6 1 9.980611531502316 0.9319775161230875 8.13352644072402 0 0 0
7 1 8.296005462044697 2.19997505341191 6.434859155610096 0 0 0
34 1 9.980608125744212 3.468148991945825 8.13352397236901 0 0 0
43 1 10.738611170584678 4.736206003244147 5.8931226004008135 0 0 0
46 1 10.738610657122647 2.200033078211438 5.893123132175069 0 0 0
78 1 1.0234594959001349 8.540423572797692 7.566439915610627 0 0 0
85 1 1.0234597531183247 6.004246158412161 7.56643961957797 0 0 0
91 1 1.8088067890019044 4.736099479134254 5.3893912027327415 0 0 0
100 1 1.808804844857637 7.2722758557772496 5.389393492861843 0 0 0
116 1 3.523443141162676 8.540382594151673 6.949003722358413 0 0 0
122 1 3.52344163512151 6.004209496001077 6.948999565058849 0 0 0
18 1 5.8231622455031316 7.272380244634653 6.959882944108131 0 0 0
24 1 5.823162269612289 4.736205314009201 6.959882605357518 0 0 0
25 1 6.62177269098512 6.004217091694079 4.794053813340111 0 0 0
31 1 6.621774907348011 3.4680442591562066 4.7940569421456685 0 0 0
123 1 4.327858536093106 7.272262165745834 4.7924786081342114 0 0 0
129 1 4.327860299315196 4.736090258160625 4.792476744461812 0 0 0
16 1 8.296002533928236 4.73614769714774 6.43485682016602 0 0 0
37 1 10.738610753003867 9.808553233701707 5.893125111499277 0 0 0
40 1 10.738610638558855 7.272380075877362 5.8931241882702015 0 0 0
56 1 9.980613882411232 8.540494738658593 8.133520588948842 0 0 0
62 1 9.980611220296502 6.004322965566895 8.133520745844084 0 0 0
63 1 8.296002471513514 7.272323128542878 6.434857465682018 0 0 0
72 1 1.023462783217383 11.076596072514794 7.566439997138431 0 0 0
73 1 1.8088078101789933 12.34461752585446 5.389397896658556 0 0 0
79 1 1.8088064563204809 9.808446073590757 5.389398235736069 0 0 0
110 1 3.523441824730376 11.076554785393334 6.94900636260717 0 0 0
12 1 5.82316357322897 9.808553860744691 6.95988330363148 0 0 0
13 1 6.621775907164267 11.076562685191988 4.794058385974707 0 0 0
19 1 6.621770836273545 8.540389688756798 4.7940549354263915 0 0 0
111 1 4.327862057590978 12.344607567551646 4.792483631747325 0 0 0
117 1 4.327860164078959 9.808437056717358 4.792481662177609 0 0 0
51 1 9.980609121608826 11.076668634346904 8.133523773606367 0 0 0
57 1 8.296000734927912 9.808496534280703 6.434856403469862 0 0 0
66 1 8.296003328990558 12.34467017121499 6.434857031671533 0 0 0
135 1 10.738609940908358 12.34472312141166 5.893125021628088 0 0 0
1 1 1.9766585859645818 0.9320584276418689 11.532888419504037 0 0 0
70 1 4.240090466229751 2.200294490843835 11.169419424261882 0 0 0
94 1 1.9766575384839178 3.468230591229411 11.532886482429841 0 0 0
95 1 2.7094148404006626 2.1999971030127896 9.146261504816245 0 0 0
132 1 4.240091001669107 4.736469503754858 11.169415218331142 0 0 0
69 1 7.5194636596221835 0.9318938746200938 8.638523572664061 0 0 0
101 1 6.7118490418626715 2.199968989744451 10.819091996242165 0 0 0
108 1 6.71184605341883 12.344659074924852 10.819092575590156 0 -1 0
133 1 5.033207183260059 3.4682358622159333 9.09393144616101 0 0 0
4 1 9.183829072897588 2.200044717550394 10.343044427983356 0 0 0
5 1 0.27486740394384057 2.200079193436926 9.831242286673723 1 0 0
10 1 9.183832335926308 12.344734611891369 10.343041861365794 0 -1 0
45 1 10.815678365317789 3.4681296143679257 12.028204583680324 0 0 0
48 1 10.815678891864186 0.9319578206111179 12.02820327496117 0 0 0
82 1 1.9766610489994878 8.540575713068138 11.532889295399764 0 0 0
83 1 2.7094210903194025 7.27234074946958 9.146262463921047 0 0 0
88 1 1.976659458574785 6.004401966488767 11.53288775518581 0 0 0
89 1 2.7094208660749586 4.7361716851150355 9.146261721962434 0 0 0
120 1 4.24009536428003 9.808816610347417 11.169411435345037 0 0 0
126 1 4.24009362985475 7.27264215372933 11.169412054717963 0 0 0
22 1 6.711849099621545 7.2723116623650785 10.819088946790727 0 0 0
23 1 7.519464127056388 6.004237366619259 8.63852240565341 0 0 0
28 1 6.711850800997734 4.736139660120698 10.819091059966556 0 0 0
29 1 7.519463327774873 3.468064942894247 8.638521842762607 0 0 0
121 1 5.033204128879228 8.540577280497264 9.093932265654068 0 0 0
127 1 5.033207015819701 6.004404836796403 9.093932965392424 0 0 0
35 1 9.183829423121665 4.736218870730551 10.34304204648295 0 0 0
39 1 10.815678008970785 8.540472178461739 12.028201377083802 0 0 0
42 1 10.815678278307603 6.004303296784859 12.028201195890748 0 0 0
50 1 0.2748674160511343 4.736253691677639 9.831242623560119 1 0 0
60 1 9.18383144563124 7.272391366316283 10.343040054096077 0 0 0
61 1 0.27487147403687745 7.27242648699323 9.831242988342751 1 0 0
71 1 2.709419748749781 12.344687802576571 9.146261558361712 0 0 0
76 1 1.9766567248753322 11.076746602857469 11.532888182336192 0 0 0
77 1 2.70941923504424 9.808513412261524 9.14626092556054 0 0 0
114 1 4.240097095700424 12.344988471829987 11.16940710006954 0 0 0
11 1 7.519467739676097 11.0765835270879 8.638524109043317 0 0 0
17 1 6.7118475023675375 9.808484011974176 10.819090025803686 0 0 0
32 1 7.51946646197644 8.540412375030371 8.638523846272053 0 0 0
109 1 5.033204530242956 0.9320585533166091 9.093933377147039 0 1 0
115 1 5.0332047469196155 11.076754915120006 9.093933781040668 0 0 0
36 1 10.815679744431955 11.076645988337846 12.028201735536282 0 0 0
49 1 0.27486464062898186 12.344768716955214 9.8312431027253 1 0 0
54 1 9.183833178140551 9.808561977853447 10.343038389399782 0 0 0
55 1 0.2748692979632355 9.80859813531586 9.83124369678861 1 0 0

Velocities

92 0 0 0
98 0 0 0
99 0 0 0
102 0 0 0
130 0 0 0
33 0 0 0
84 0 0 0
106 0 0 0
107 0 0 0
2 0 0 0
8 0 0 0
9 0 0 0
44 0 0 0
47 0 0 0
80 0 0 0
86 0 0 0
87 0 0 0
93 0 0 0
124 0 0 0
20 0 0 0
26 0 0 0
27 0 0 0
68 0 0 0
125 0 0 0
131 0 0 0
3 0 0 0
38 0 0 0
41 0 0 0
58 0 0 0
64 0 0 0
65 0 0 0
74 0 0 0
75 0 0 0
81 0 0 0
112 0 0 0
119 0 0 0
14 0 0 0
15 0 0 0
21 0 0 0
113 0 0 0
134 0 0 0
52 0 0 0
53 0 0 0
59 0 0 0
67 0 0 0
90 0 0 0
96 0 0 0
97 0 0 0
103 0 0 0
128 0 0 0
30 0 0 0
104 0 0 0
105 0 0 0
118 0 0 0
6 0 0 0
7 0 0 0
34 0 0 0
43 0 0 0
46 0 0 0
78 0 0 0
85 0 0 0
91 0 0 0
100 0 0 0
116 0 0 0
122 0 0 0
18 0 0 0
24 0 0 0
25 0 0 0
31 0 0 0
123 0 0 0
129 0 0 0
16 0 0 0
37 0 0 0
40 0 0 0
56 0 0 0
62 0 0 0
63 0 0 0
72 0 0 0
73 0 0 0
79 0 0 0
110 0 0 0
12 0 0 0
13 0 0 0
19 0 0 0
111 0 0 0
117 0 0 0
51 0 0 0
57 0 0 0
66 0 0 0
135 0 0 0
1 0 0 0
70 0 0 0
94 0 0 0
95 0 0 0
132 0 0 0
69 0 0 0
101 0 0 0
108 0 0 0
133 0 0 0
4 0 0 0
5 0 0 0
10 0 0 0
45 0 0 0
48 0 0 0
82 0 0 0
83 0 0 0
88 0 0 0
89 0 0 0
120 0 0 0
126 0 0 0
22 0 0 0
23 0 0 0
28 0 0 0
29 0 0 0
121 0 0 0
127 0 0 0
35 0 0 0
39 0 0 0
42 0 0 0
50 0 0 0
60 0 0 0
61 0 0 0
71 0 0 0
76 0 0 0
77 0 0 0
114 0 0 0
11 0 0 0
17 0 0 0
32 0 0 0
109 0 0 0
115 0 0 0
36 0 0 0
49 0 0 0
54 0 0 0
55 0 0 0
