LAMMPS data file via write_data, version 22 Jul 2025, timestep = 3, units = metal

128 atoms
3 atom types

0 10.224764 xlo xhi
0 8.854905 ylo yhi
0 16.69697 zlo zhi
5.112382 0 0 xy xz yz

Masses

1 63.55
2 63.55
3 63.55

Atoms # atomic

1 1 2.5561912814024703 1.4758178377370283 16.694080185785033 0 0 -1
17 1 2.820187533291221e-07 1.4610800699928373e-07 2.085647452122701 0 0 0
18 1 1.2780957179817871 2.213726478819724 2.0856474217129533 0 0 0
21 1 2.5561912820187525 1.4610800662746845e-07 2.0856474521227004 0 0 0
33 1 1.2780957182882315 0.7379088793933695 4.17424253310685 0 0 0
34 1 2.556191281711973 2.951635112067832 4.174242533106503 0 0 0
2 1 3.834286718597809 3.6895439998314687 16.69408015336126 0 0 -1
5 1 5.11238228140247 1.4758178377370283 16.694080185785033 0 0 -1
6 1 6.390477718597811 3.689543999831469 16.694080153361256 0 0 -1
9 1 7.668573281402471 1.4758178377370277 16.694080185785033 0 0 -1
22 1 3.8342867179817874 2.2137264788197246 2.0856474217129533 0 0 0
25 1 5.112382282018753 1.4610800721943495e-07 2.0856474521227004 0 0 0
26 1 6.390477717981787 2.2137264788197237 2.0856474217129533 0 0 0
29 1 7.668573282018753 1.4610800659440073e-07 2.0856474521227 0 0 0
37 1 3.8342867182882325 0.73790887939337 4.17424253310685 0 0 0
38 1 5.112382281711974 2.951635112067832 4.174242533106503 0 0 0
41 1 6.390477718288232 0.73790887939337 4.174242533106849 0 0 0
42 1 7.668573281711974 2.9516351120678324 4.174242533106503 0 0 0
10 1 8.94666871859781 3.689543999831469 16.694080153361256 0 0 -1
13 1 10.224764281402472 1.4758178377370283 16.694080185785033 0 0 -1
30 1 8.946668717981789 2.213726478819724 2.0856474217129533 0 0 0
45 1 8.946668718288231 0.7379088793933702 4.17424253310685 0 0 0
46 1 10.224764281711975 2.951635112067832 4.174242533106503 0 0 0
14 1 11.50285971859781 3.6895439998314687 16.694080153361256 0 0 -1
3 1 5.112382281401587 5.903270260339596 16.694080166273192 0 0 -1
4 1 6.390477718598181 8.11699641812331 16.69408015823204 0 0 -1
7 1 7.668573281401587 5.903270260339595 16.694080166273192 0 0 -1
20 1 3.8342867179812408 6.641178944895431 2.085647413256626 0 0 0
23 1 5.112382282018258 4.427452720862185 2.08564745016851 0 0 0
24 1 6.390477717981241 6.64117894489543 2.085647413256626 0 0 0
27 1 7.668573282018258 4.427452720862185 2.08564745016851 0 0 0
35 1 3.8342867182882574 5.165361301498273 4.174242533106865 0 0 0
36 1 5.112382281711343 7.379087631758579 4.174242533106989 0 0 0
39 1 6.390477718288258 5.165361301498274 4.174242533106865 0 0 0
40 1 7.668573281711343 7.379087631758578 4.17424253310699 0 0 0
8 1 8.94666871859818 8.11699641812331 16.69408015823204 0 0 -1
11 1 10.224764281401589 5.903270260339597 16.694080166273192 0 0 -1
28 1 8.946668717981241 6.64117894489543 2.0856474132566256 0 0 0
31 1 10.22476428201826 4.427452720862184 2.0856474501685103 0 0 0
43 1 8.946668718288258 5.165361301498274 4.174242533106865 0 0 0
44 1 10.224764281711346 7.379087631758578 4.17424253310699 0 0 0
12 1 11.502859718598181 8.11699641812331 16.69408015823204 0 0 -1
15 1 12.780955281401589 5.903270260339597 16.694080166273192 0 0 -1
16 1 14.05905071859818 8.116996418123312 16.69408015823204 0 0 -1
19 1 2.5561912820182586 4.427452720862184 2.08564745016851 0 0 0
32 1 11.502859717981242 6.641178944895431 2.085647413256626 0 0 0
47 1 11.502859718288256 5.165361301498274 4.174242533106865 0 0 0
48 1 12.780955281711343 7.379087631758576 4.174242533106989 0 0 0
49 1 2.820183956498189e-07 1.4610792070749314e-07 6.262837004635339 0 0 0
50 1 1.2780957179821446 2.2137264788194195 6.262837035045404 0 0 0
53 1 2.5561912820183963 1.4610792012544518e-07 6.262837004635339 0 0 0
54 1 3.834286717982144 2.2137264788194195 6.262837035045405 0 0 0
57 1 5.112382282018396 1.461079203070525e-07 6.2628370046353385 0 0 0
58 1 6.3904777179821455 2.2137264788194195 6.262837035045404 0 0 0
61 1 7.6685732820183965 1.4610792035213627e-07 6.262837004635339 0 0 0
62 1 8.946668717982146 2.213726478819419 6.262837035045404 0 0 0
52 1 3.8342867179815974 6.641178944895051 6.262837043501833 0 0 0
55 1 5.112382282017902 4.427452720862645 6.2628370065895185 0 0 0
56 1 6.390477717981598 6.64117894489505 6.262837043501833 0 0 0
59 1 7.668573282017901 4.427452720862646 6.2628370065895185 0 0 0
60 1 8.946668717981598 6.641178944895051 6.262837043501833 0 0 0
63 1 10.2247642820179 4.427452720862646 6.2628370065895185 0 0 0
51 1 2.556191282017898 4.427452720862645 6.2628370065895185 0 0 0
64 1 11.502859717981597 6.641178944895051 6.262837043501833 0 0 0
65 1 2.5561912814024703 1.4758178377371207 8.351374838956412 0 0 0
81 1 2.809047016983095e-07 1.5709248161007989e-07 10.437079544482241 0 0 0
82 1 1.2780957190959348 2.213726576984122 10.437079550268022 0 0 0
85 1 2.556191280904702 1.5709248119403628e-07 10.43707954448224 0 0 0
97 1 2.556191281076498 1.4758178401405964 12.522727536925316 0 0 0
66 1 3.83428671859781 3.689543999831294 8.351374871380537 0 0 0
69 1 5.1123822814024695 1.4758178377371203 8.351374838956412 0 0 0
70 1 6.39047771859781 3.6895439998312947 8.351374871380537 0 0 0
73 1 7.66857328140247 1.4758178377371198 8.351374838956412 0 0 0
86 1 3.834286719095936 2.213726576984123 10.437079550268022 0 0 0
89 1 5.112382280904702 1.5709248121655338e-07 10.437079544482241 0 0 0
90 1 6.390477719095935 2.213726576984122 10.437079550268022 0 0 0
93 1 7.668573280904702 1.5709248208533994e-07 10.43707954448224 0 0 0
98 1 3.834286718923707 3.6895440136703184 12.522727536924686 0 0 0
101 1 5.112382281076498 1.4758178401405968 12.522727536925316 0 0 0
102 1 6.390477718923706 3.689544013670318 12.522727536924686 0 0 0
105 1 7.668573281076498 1.4758178401405961 12.522727536925316 0 0 0
74 1 8.94666871859781 3.6895439998312947 8.351374871380537 0 0 0
77 1 10.22476428140247 1.475817837737121 8.351374838956412 0 0 0
94 1 8.946668719095936 2.2137265769841217 10.437079550268022 0 0 0
106 1 8.946668718923707 3.689544013670318 12.522727536924686 0 0 0
109 1 10.2247642810765 1.4758178401405981 12.522727536925316 0 0 0
78 1 11.502859718597811 3.689543999831294 8.351374871380537 0 0 0
110 1 11.502859718923705 3.6895440136703175 12.522727536924686 0 0 0
67 1 5.1123822814015885 5.9032702603396725 8.351374858468596 0 0 0
68 1 6.390477718598182 8.116996418123293 8.351374866509097 0 0 0
71 1 7.668573281401588 5.9032702603396725 8.351374858468596 0 0 0
84 1 3.834286719095512 6.641178991731561 10.437079554334183 0 0 0
87 1 5.112382280903857 4.427452735033959 10.437079557146202 0 0 0
88 1 6.390477719095513 6.641178991731562 10.437079554334183 0 0 0
91 1 7.668573280903856 4.427452735033959 10.4370795571462 0 0 0
99 1 5.112382281075656 5.903270263520759 12.522727536925279 0 0 0
100 1 6.390477718924136 8.116996422833411 12.522727536925151 0 0 0
103 1 7.6685732810756555 5.903270263520759 12.522727536925279 0 0 0
72 1 8.946668718598183 8.116996418123293 8.351374866509097 0 0 0
75 1 10.224764281401589 5.9032702603396725 8.351374858468596 0 0 0
92 1 8.946668719095513 6.641178991731562 10.437079554334183 0 0 0
95 1 10.224764280903857 4.42745273503396 10.4370795571462 0 0 0
104 1 8.946668718924135 8.116996422833411 12.522727536925151 0 0 0
107 1 10.224764281075657 5.903270263520758 12.522727536925279 0 0 0
76 1 11.502859718598183 8.116996418123293 8.351374866509097 0 0 0
79 1 12.780955281401589 5.9032702603396725 8.351374858468596 0 0 0
80 1 14.059050718598181 8.116996418123293 8.351374866509097 0 0 0
83 1 2.5561912809038563 4.427452735033959 10.4370795571462 0 0 0
96 1 11.502859719095513 6.641178991731562 10.437079554334183 0 0 0
108 1 11.502859718924135 8.11699642283341 12.522727536925151 0 0 0
111 1 12.78095528107566 5.90327026352076 12.522727536925279 0 0 0
112 1 14.059050718924135 8.11699642283341 12.522727536925151 0 0 0
113 1 2.809043429901993e-07 1.5709230801450406e-07 14.608374903985906 0 0 0
114 1 1.2780957190962934 2.2137265769836874 14.608374898200479 0 0 0
117 1 2.556191280904343 1.5709230747164302e-07 14.608374903985906 0 0 0
118 1 3.834286719096294 2.213726576983687 14.608374898200479 0 0 0
121 1 5.112382280904342 1.5709230783767873e-07 14.608374903985906 0 0 0
122 1 6.390477719096293 2.2137265769836874 14.608374898200479 0 0 0
125 1 7.668573280904343 1.5709230748224065e-07 14.608374903985906 0 0 0
126 1 8.946668719096294 2.213726576983687 14.608374898200477 0 0 0
116 1 3.8342867190958705 6.64117899173123 14.608374894134482 0 0 0
119 1 5.112382280903498 4.427452735034338 14.608374891321802 0 0 0
120 1 6.3904777190958715 6.64117899173123 14.608374894134482 0 0 0
123 1 7.668573280903495 4.427452735034337 14.608374891321802 0 0 0
124 1 8.946668719095872 6.64117899173123 14.608374894134482 0 0 0
127 1 10.224764280903498 4.427452735034337 14.608374891321802 0 0 0
115 1 2.556191280903496 4.427452735034338 14.608374891321803 0 0 0
128 1 11.502859719095872 6.641178991731228 14.608374894134482 0 0 0

Velocities

1 0 0 0
17 0 0 0
18 0 0 0
21 0 0 0
33 0 0 0
34 0 0 0
2 0 0 0
5 0 0 0
6 0 0 0
9 0 0 0
22 0 0 0
25 0 0 0
26 0 0 0
29 0 0 0
37 0 0 0
38 0 0 0
41 0 0 0
42 0 0 0
10 0 0 0
13 0 0 0
30 0 0 0
45 0 0 0
46 0 0 0
14 0 0 0
3 0 0 0
4 0 0 0
7 0 0 0
20 0 0 0
23 0 0 0
24 0 0 0
27 0 0 0
35 0 0 0
36 0 0 0
39 0 0 0
40 0 0 0
8 0 0 0
11 0 0 0
28 0 0 0
31 0 0 0
43 0 0 0
44 0 0 0
12 0 0 0
15 0 0 0
16 0 0 0
19 0 0 0
32 0 0 0
47 0 0 0
48 0 0 0
49 0 0 0
50 0 0 0
53 0 0 0
54 0 0 0
57 0 0 0
58 0 0 0
61 0 0 0
62 0 0 0
52 0 0 0
55 0 0 0
56 0 0 0
59 0 0 0
60 0 0 0
63 0 0 0
51 0 0 0
64 0 0 0
65 0 0 0
81 0 0 0
82 0 0 0
85 0 0 0
97 0 0 0
66 0 0 0
69 0 0 0
70 0 0 0
73 0 0 0
86 0 0 0
89 0 0 0
90 0 0 0
93 0 0 0
98 0 0 0
101 0 0 0
102 0 0 0
105 0 0 0
74 0 0 0
77 0 0 0
94 0 0 0
106 0 0 0
109 0 0 0
78 0 0 0
110 0 0 0
67 0 0 0
68 0 0 0
71 0 0 0
84 0 0 0
87 0 0 0
88 0 0 0
91 0 0 0
99 0 0 0
100 0 0 0
103 0 0 0
72 0 0 0
75 0 0 0
92 0 0 0
95 0 0 0
104 0 0 0
107 0 0 0
76 0 0 0
79 0 0 0
80 0 0 0
83 0 0 0
96 0 0 0
108 0 0 0
111 0 0 0
112 0 0 0
113 0 0 0
114 0 0 0
117 0 0 0
118 0 0 0
121 0 0 0
122 0 0 0
125 0 0 0
126 0 0 0
116 0 0 0
119 0 0 0
120 0 0 0
123 0 0 0
124 0 0 0
127 0 0 0
115 0 0 0
128 0 0 0
