LAMMPS data file via write_data, version 22 Jul 2025, timestep = 3, units = metal

128 atoms
3 atom types

0 10.224764 xlo xhi
0 8.854905 ylo yhi
0 16.69697 zlo zhi
5.112382 0 0 xy xz yz

Masses

1 63.55
2 63.55
3 63.55

Atoms # atomic

1 1 1.2780957180023291 0.7379089731496357 0.0014735804062777779 0 0 0
2 1 2.5561912819977968 2.9516351639148484 0.0014734945155495138 0 0 0
17 1 2.8138093569554063e-07 1.404952492161394e-07 2.0900108390852323 0 0 0
18 1 1.2780957186195068 2.213726389571747 2.0900108426043094 0 0 0
21 1 2.556191281380936 1.404952484528925e-07 2.090010839085232 0 0 0
33 1 1.278095719117096 0.7379088489184178 4.175716098710255 0 0 0
34 1 2.5561912808830316 2.9516350968611933 4.175716141897695 0 0 0
5 1 3.8342867180023297 0.7379089731496351 0.001473580406277987 0 0 0
6 1 5.112382281997796 2.951635163914849 0.0014734945155507855 0 0 0
9 1 6.390477718002329 0.7379089731496347 0.0014735804062770595 0 0 0
10 1 7.668573281997798 2.9516351639148484 0.0014734945155494342 0 0 0
22 1 3.8342867186195093 2.2137263895717463 2.09001084260431 0 0 0
25 1 5.1123822813809365 1.4049524881930984e-07 2.090010839085232 0 0 0
26 1 6.390477718619508 2.213726389571747 2.09001084260431 0 0 0
29 1 7.668573281380937 1.4049524871159128e-07 2.0900108390852323 0 0 0
37 1 3.8342867191170966 0.7379088489184181 4.175716098710254 0 0 0
38 1 5.112382280883033 2.9516350968611924 4.175716141897695 0 0 0
41 1 6.390477719117095 0.7379088489184173 4.175716098710255 0 0 0
42 1 7.668573280883033 2.9516350968611933 4.175716141897695 0 0 0
13 1 8.94666871800233 0.7379089731496347 0.0014735804062768754 0 0 0
14 1 10.224764281997796 2.951635163914849 0.0014734945155509217 0 0 0
30 1 8.946668718619506 2.213726389571747 2.0900108426043094 0 0 0
45 1 8.946668719117097 0.7379088489184163 4.175716098710255 0 0 0
46 1 10.224764280883031 2.9516350968611937 4.175716141897694 0 0 0
3 1 3.8342867180025832 5.165361457555634 0.001473582953534196 0 0 0
4 1 5.1123822819972435 7.379087697625755 0.0014736065972792858 0 0 0
7 1 6.390477718002584 5.165361457555634 0.0014735829535356274 0 0 0
8 1 7.668573281997245 7.379087697625755 0.0014736065972794008 0 0 0
20 1 3.8342867186189005 6.641178924469416 2.0900108144638367 0 0 0
23 1 5.112382281380829 4.427452726146363 2.090010841404582 0 0 0
24 1 6.3904777186189 6.641178924469415 2.0900108144638367 0 0 0
27 1 7.668573281380828 4.427452726146364 2.0900108414045824 0 0 0
35 1 3.8342867191172894 5.165361316761764 4.175716105667292 0 0 0
36 1 5.112382280882426 7.379087614562556 4.175716064487198 0 0 0
39 1 6.39047771911729 5.165361316761764 4.175716105667291 0 0 0
40 1 7.668573280882426 7.379087614562555 4.175716064487198 0 0 0
11 1 8.946668718002584 5.165361457555634 0.0014735829535345729 0 0 0
12 1 10.224764281997246 7.379087697625755 0.001473606597278954 0 0 0
28 1 8.9466687186189 6.641178924469416 2.0900108144638363 0 0 0
31 1 10.22476428138083 4.427452726146363 2.090010841404582 0 0 0
43 1 8.946668719117287 5.165361316761764 4.175716105667292 0 0 0
44 1 10.224764280882427 7.379087614562556 4.175716064487198 0 0 0
15 1 11.502859718002584 5.165361457555634 0.0014735829535342346 0 0 0
16 1 12.780955281997246 7.379087697625755 0.0014736065972784445 0 0 0
19 1 2.5561912813808263 4.427452726146364 2.090010841404582 0 0 0
32 1 11.5028597186189 6.641178924469416 2.0900108144638367 0 0 0
47 1 11.50285971911729 5.165361316761764 4.175716105667291 0 0 0
48 1 12.780955280882427 7.379087614562557 4.175716064487198 0 0 0
49 1 2.8105504483032355e-07 1.2938905461443276e-07 6.2613634630705635 0 0 0
50 1 1.2780957189454363 2.2137263794669293 6.2613634630703885 0 0 0
53 1 2.5561912810550442 1.2938905326410914e-07 6.261363463070564 0 0 0
54 1 3.8342867189454366 2.2137263794669297 6.261363463070389 0 0 0
57 1 5.112382281055045 1.2938905382376318e-07 6.2613634630705635 0 0 0
58 1 6.390477718945437 2.213726379466929 6.261363463070389 0 0 0
61 1 7.668573281055045 1.293890541837488e-07 6.2613634630705635 0 0 0
62 1 8.946668718945437 2.213726379466929 6.261363463070389 0 0 0
52 1 3.8342867189447807 6.641178910195228 6.2613634630708885 0 0 0
55 1 5.112382281054892 4.4274527028065584 6.26136346307055 0 0 0
56 1 6.390477718944782 6.641178910195228 6.2613634630708885 0 0 0
59 1 7.668573281054893 4.42745270280656 6.26136346307055 0 0 0
60 1 8.946668718944782 6.641178910195228 6.2613634630708885 0 0 0
63 1 10.224764281054892 4.427452702806559 6.26136346307055 0 0 0
51 1 2.5561912810548924 4.427452702806559 6.26136346307055 0 0 0
64 1 11.502859718944782 6.6411789101952285 6.261363463070889 0 0 0
65 1 1.2780957191167381 0.7379088489185641 8.347011452875103 0 0 0
66 1 2.556191280883391 2.9516350968611067 8.347011409688161 0 0 0
81 1 2.813809355642632e-07 1.4049533585716403e-07 10.43271613607197 0 0 0
82 1 1.2780957186195083 2.213726389571771 10.432716132552837 0 0 0
85 1 2.556191281380935 1.4049533654536872e-07 10.43271613607197 0 0 0
97 1 1.2780957180026864 0.7379089731497067 12.52125396289136 0 0 0
98 1 2.5561912819974397 2.9516351639146508 12.521254048782179 0 0 0
69 1 3.8342867191167374 0.7379088489185649 8.347011452875103 0 0 0
70 1 5.11238228088339 2.951635096861105 8.347011409688161 0 0 0
73 1 6.390477719116738 0.737908848918565 8.347011452875103 0 0 0
74 1 7.668573280883391 2.9516350968611045 8.347011409688161 0 0 0
86 1 3.8342867186195093 2.213726389571771 10.432716132552837 0 0 0
89 1 5.112382281380935 1.4049533636487224e-07 10.43271613607197 0 0 0
90 1 6.390477718619508 2.213726389571771 10.432716132552835 0 0 0
93 1 7.668573281380936 1.4049533641386775e-07 10.43271613607197 0 0 0
101 1 3.8342867180026867 0.7379089731497058 12.52125396289136 0 0 0
102 1 5.11238228199744 2.9516351639146503 12.521254048782179 0 0 0
105 1 6.390477718002686 0.7379089731497058 12.52125396289136 0 0 0
106 1 7.66857328199744 2.9516351639146508 12.521254048782179 0 0 0
77 1 8.946668719116738 0.7379088489185641 8.347011452875103 0 0 0
78 1 10.22476428088339 2.9516350968611054 8.347011409688161 0 0 0
94 1 8.94666871861951 2.213726389571771 10.432716132552837 0 0 0
109 1 8.946668718002686 0.7379089731497065 12.52125396289136 0 0 0
110 1 10.224764281997441 2.9516351639146503 12.521254048782179 0 0 0
67 1 3.8342867191169296 5.165361316761916 8.347011445918186 0 0 0
68 1 5.112382280882785 7.379087614562182 8.347011487098031 0 0 0
71 1 6.390477719116932 5.165361316761916 8.347011445918186 0 0 0
72 1 7.668573280882785 7.379087614562182 8.34701148709803 0 0 0
84 1 3.8342867186189005 6.641178924469263 10.432716160692815 0 0 0
87 1 5.112382281380828 4.42745272614646 10.432716133752827 0 0 0
88 1 6.3904777186189 6.641178924469263 10.432716160692815 0 0 0
91 1 7.6685732813808265 4.42745272614646 10.432716133752827 0 0 0
99 1 3.8342867180029403 5.165361457555009 12.521253960344103 0 0 0
100 1 5.112382281996888 7.379087697626063 12.521253936700106 0 0 0
103 1 6.39047771800294 5.165361457555007 12.521253960344103 0 0 0
104 1 7.668573281996888 7.379087697626063 12.521253936700106 0 0 0
75 1 8.94666871911693 5.165361316761916 8.347011445918186 0 0 0
76 1 10.224764280882786 7.379087614562182 8.347011487098031 0 0 0
92 1 8.946668718618902 6.641178924469262 10.432716160692815 0 0 0
95 1 10.224764281380827 4.42745272614646 10.432716133752827 0 0 0
107 1 8.946668718002938 5.165361457555007 12.5212539603441 0 0 0
108 1 10.224764281996887 7.379087697626063 12.521253936700106 0 0 0
79 1 11.502859719116932 5.165361316761916 8.347011445918186 0 0 0
80 1 12.780955280882786 7.379087614562183 8.347011487098031 0 0 0
83 1 2.556191281380827 4.42745272614646 10.432716133752827 0 0 0
96 1 11.5028597186189 6.641178924469262 10.432716160692815 0 0 0
111 1 11.502859718002941 5.165361457555007 12.5212539603441 0 0 0
112 1 12.780955281996889 7.379087697626063 12.521253936700106 0 0 0
113 1 2.5561912816906496 1.4758177341903218 14.60984846688914 0 0 0
114 1 3.8342867183093468 3.6895439301853505 14.60984846688904 0 0 0
117 1 5.112382281690649 1.4758177341903203 14.60984846688914 0 0 0
118 1 6.390477718309349 3.6895439301853497 14.609848466889039 0 0 0
121 1 7.668573281690649 1.4758177341903216 14.60984846688914 0 0 0
122 1 8.946668718309347 3.689543930185349 14.609848466889039 0 0 0
125 1 10.224764281690648 1.475817734190321 14.60984846688914 0 0 0
126 1 11.502859718309349 3.6895439301853497 14.60984846688904 0 0 0
115 1 5.112382281690296 5.90327020115826 14.609848466889614 0 0 0
116 1 6.390477718309604 8.116996312543687 14.609848466889092 0 0 0
119 1 7.668573281690296 5.90327020115826 14.609848466889614 0 0 0
120 1 8.946668718309606 8.116996312543689 14.609848466889092 0 0 0
123 1 10.224764281690296 5.903270201158259 14.609848466889616 0 0 0
124 1 11.502859718309605 8.116996312543689 14.609848466889092 0 0 0
127 1 12.780955281690296 5.903270201158258 14.609848466889614 0 0 0
128 1 14.059050718309605 8.116996312543689 14.609848466889092 0 0 0

Velocities

1 0 0 0
2 0 0 0
17 0 0 0
18 0 0 0
21 0 0 0
33 0 0 0
34 0 0 0
5 0 0 0
6 0 0 0
9 0 0 0
10 0 0 0
22 0 0 0
25 0 0 0
26 0 0 0
29 0 0 0
37 0 0 0
38 0 0 0
41 0 0 0
42 0 0 0
13 0 0 0
14 0 0 0
30 0 0 0
45 0 0 0
46 0 0 0
3 0 0 0
4 0 0 0
7 0 0 0
8 0 0 0
20 0 0 0
23 0 0 0
24 0 0 0
27 0 0 0
35 0 0 0
36 0 0 0
39 0 0 0
40 0 0 0
11 0 0 0
12 0 0 0
28 0 0 0
31 0 0 0
43 0 0 0
44 0 0 0
15 0 0 0
16 0 0 0
19 0 0 0
32 0 0 0
47 0 0 0
48 0 0 0
49 0 0 0
50 0 0 0
53 0 0 0
54 0 0 0
57 0 0 0
58 0 0 0
61 0 0 0
62 0 0 0
52 0 0 0
55 0 0 0
56 0 0 0
59 0 0 0
60 0 0 0
63 0 0 0
51 0 0 0
64 0 0 0
65 0 0 0
66 0 0 0
81 0 0 0
82 0 0 0
85 0 0 0
97 0 0 0
98 0 0 0
69 0 0 0
70 0 0 0
73 0 0 0
74 0 0 0
86 0 0 0
89 0 0 0
90 0 0 0
93 0 0 0
101 0 0 0
102 0 0 0
105 0 0 0
106 0 0 0
77 0 0 0
78 0 0 0
94 0 0 0
109 0 0 0
110 0 0 0
67 0 0 0
68 0 0 0
71 0 0 0
72 0 0 0
84 0 0 0
87 0 0 0
88 0 0 0
91 0 0 0
99 0 0 0
100 0 0 0
103 0 0 0
104 0 0 0
75 0 0 0
76 0 0 0
92 0 0 0
95 0 0 0
107 0 0 0
108 0 0 0
79 0 0 0
80 0 0 0
83 0 0 0
96 0 0 0
111 0 0 0
112 0 0 0
113 0 0 0
114 0 0 0
117 0 0 0
118 0 0 0
121 0 0 0
122 0 0 0
125 0 0 0
126 0 0 0
115 0 0 0
116 0 0 0
119 0 0 0
120 0 0 0
123 0 0 0
124 0 0 0
127 0 0 0
128 0 0 0
