LAMMPS data file via write_data, version 22 Jul 2025, timestep = 2, units = metal

128 atoms
3 atom types

0 10.224764 xlo xhi
0 8.854905 ylo yhi
0 16.69697 zlo zhi
5.112382 0 0 xy xz yz

Masses

1 63.55
2 63.55
3 63.55

Atoms # atomic

1 1 2.556191248567971 1.4758177227347 16.69696971944296 0 0 -1
17 1 1.2780957519806626 0.7379088428869058 2.088548885764364 0 0 0
18 1 2.55619124801936 2.9516352508252663 2.0885488410598883 0 0 0
33 1 2.486876583402097e-07 1.7107140199735708e-07 4.174242234286542 0 0 0
34 1 1.2780957513125235 2.213726306817638 4.174242234286422 0 0 0
37 1 2.5561912486876586 1.710714017273512e-07 4.174242234286543 0 0 0
2 1 3.8342867514320775 3.6895441169405045 16.696969830864393 0 0 -1
5 1 5.112382248567971 1.4758177227347 16.69696971944296 0 0 -1
6 1 6.390477751432076 3.6895441169405045 16.696969830864393 0 0 -1
9 1 7.668573248567971 1.4758177227347 16.69696971944296 0 0 -1
21 1 3.8342867519806623 0.7379088428869054 2.0885488857643635 0 0 0
22 1 5.112382248019361 2.951635250825267 2.0885488410598883 0 0 0
25 1 6.390477751980663 0.7379088428869052 2.088548885764364 0 0 0
26 1 7.668573248019361 2.9516352508252663 2.0885488410598883 0 0 0
38 1 3.8342867513125225 2.213726306817638 4.174242234286422 0 0 0
41 1 5.112382248687658 1.7107140193982346e-07 4.174242234286542 0 0 0
42 1 6.390477751312523 2.2137263068176383 4.174242234286422 0 0 0
45 1 7.668573248687658 1.7107140223388069e-07 4.174242234286542 0 0 0
10 1 8.946668751432078 3.6895441169405045 16.696969830864393 0 0 -1
13 1 10.22476424856797 1.4758177227346996 16.69696971944296 0 0 -1
29 1 8.946668751980662 0.7379088428869052 2.088548885764364 0 0 0
30 1 10.224764248019362 2.951635250825266 2.0885488410598883 0 0 0
46 1 8.946668751312522 2.213726306817638 4.174242234286422 0 0 0
14 1 11.502859751432077 3.689544116940505 16.696969830864393 0 0 -1
3 1 5.112382248567762 5.903270183550858 16.696969662453647 0 0 -1
4 1 6.390477751432188 8.116996657915042 16.69696973861345 0 0 -1
7 1 7.668573248567762 5.903270183550858 16.696969662453647 0 0 -1
19 1 3.8342867519807275 5.165361297779727 2.0885488915589328 0 0 0
20 1 5.112382248019192 7.379087763199804 2.088548906424744 0 0 0
23 1 6.390477751980727 5.165361297779726 2.0885488915589328 0 0 0
24 1 7.668573248019193 7.379087763199804 2.0885489064247436 0 0 0
36 1 3.834286751312305 6.641178867289188 4.174242234286492 0 0 0
39 1 5.112382248687634 4.427452740900773 4.174242234286526 0 0 0
40 1 6.390477751312305 6.641178867289188 4.174242234286493 0 0 0
43 1 7.668573248687635 4.427452740900773 4.174242234286526 0 0 0
8 1 8.946668751432187 8.116996657915042 16.69696973861345 0 0 -1
11 1 10.224764248567762 5.903270183550858 16.696969662453647 0 0 -1
27 1 8.946668751980729 5.165361297779726 2.0885488915589328 0 0 0
28 1 10.224764248019191 7.379087763199804 2.0885489064247436 0 0 0
44 1 8.946668751312306 6.641178867289188 4.174242234286493 0 0 0
47 1 10.224764248687634 4.427452740900773 4.174242234286526 0 0 0
12 1 11.502859751432185 8.116996657915042 16.69696973861345 0 0 -1
15 1 12.78095524856776 5.903270183550858 16.696969662453647 0 0 -1
16 1 14.059050751432185 8.116996657915042 16.69696973861345 0 0 -1
31 1 11.502859751980727 5.165361297779726 2.0885488915589328 0 0 0
32 1 12.780955248019191 7.379087763199804 2.0885489064247436 0 0 0
35 1 2.5561912486876333 4.427452740900773 4.174242234286526 0 0 0
48 1 11.502859751312304 6.641178867289188 4.174242234286492 0 0 0
49 1 1.2780957519807579 0.7379088428869335 6.2599361421055795 0 0 0
50 1 2.556191248019265 2.9516352508251154 6.259936186810221 0 0 0
53 1 3.834286751980757 0.7379088428869339 6.2599361421055795 0 0 0
54 1 5.112382248019266 2.9516352508251154 6.259936186810221 0 0 0
57 1 6.390477751980757 0.7379088428869338 6.2599361421055795 0 0 0
58 1 7.668573248019266 2.951635250825115 6.259936186810221 0 0 0
61 1 8.946668751980756 0.7379088428869333 6.2599361421055795 0 0 0
62 1 10.224764248019264 2.9516352508251154 6.259936186810221 0 0 0
51 1 3.834286751980822 5.165361297779959 6.259936136310756 0 0 0
52 1 5.112382248019097 7.379087763199506 6.25993612144501 0 0 0
55 1 6.390477751980821 5.165361297779959 6.259936136310756 0 0 0
56 1 7.668573248019098 7.379087763199506 6.25993612144501 0 0 0
59 1 8.946668751980823 5.165361297779958 6.259936136310755 0 0 0
60 1 10.224764248019097 7.379087763199506 6.259936121445009 0 0 0
63 1 11.502859751980822 5.165361297779958 6.259936136310756 0 0 0
64 1 12.7809552480191 7.379087763199506 6.25993612144501 0 0 0
65 1 2.556191248567972 1.47581772273462 8.348484756244332 0 0 0
81 1 2.480194095038281e-07 2.35796303281613e-07 10.437033885238005 0 0 0
82 1 1.278095751980795 2.213726310445722 10.437033916485762 0 0 0
85 1 2.556191248019409 2.3579630278073384e-07 10.437033885238007 0 0 0
97 1 1.2780957513123647 0.7379088039160706 12.522727234286462 0 0 0
98 1 2.5561912486876786 2.9516351645545305 12.522727234286393 0 0 0
66 1 3.8342867514320775 3.6895441169406347 8.348484644822934 0 0 0
69 1 5.112382248567972 1.4758177227346203 8.348484756244332 0 0 0
70 1 6.390477751432077 3.6895441169406338 8.348484644822932 0 0 0
73 1 7.668573248567974 1.47581772273462 8.348484756244332 0 0 0
86 1 3.8342867519807946 2.213726310445722 10.437033916485762 0 0 0
89 1 5.1123822480194105 2.3579630317626093e-07 10.437033885238005 0 0 0
90 1 6.390477751980796 2.213726310445722 10.437033916485762 0 0 0
93 1 7.668573248019411 2.3579630368758698e-07 10.437033885238007 0 0 0
101 1 3.8342867513123635 0.7379088039160704 12.522727234286462 0 0 0
102 1 5.112382248687679 2.951635164554531 12.522727234286393 0 0 0
105 1 6.390477751312364 0.73790880391607 12.522727234286462 0 0 0
106 1 7.668573248687679 2.951635164554531 12.522727234286393 0 0 0
74 1 8.946668751432078 3.6895441169406333 8.348484644822932 0 0 0
77 1 10.22476424856797 1.47581772273462 8.348484756244332 0 0 0
94 1 8.946668751980795 2.213726310445722 10.437033916485762 0 0 0
109 1 8.946668751312364 0.73790880391607 12.522727234286462 0 0 0
110 1 10.224764248687679 2.95163516455453 12.522727234286393 0 0 0
78 1 11.502859751432077 3.6895441169406338 8.348484644822934 0 0 0
67 1 5.112382248567762 5.903270183550988 8.348484813233583 0 0 0
68 1 6.390477751432187 8.116996657914962 8.348484737073743 0 0 0
71 1 7.668573248567763 5.903270183550988 8.348484813233583 0 0 0
84 1 3.834286751980613 6.641178827224881 10.437033830998734 0 0 0
87 1 5.112382248019239 4.427452775232655 10.437033892085406 0 0 0
88 1 6.3904777519806135 6.6411788272248815 10.437033830998734 0 0 0
91 1 7.668573248019238 4.427452775232655 10.437033892085406 0 0 0
99 1 3.8342867513123653 5.16536129957953 12.522727234286606 0 0 0
100 1 5.112382248687469 7.379087676806377 12.522727234286522 0 0 0
103 1 6.390477751312366 5.165361299579532 12.522727234286606 0 0 0
104 1 7.668573248687469 7.379087676806378 12.522727234286522 0 0 0
72 1 8.946668751432188 8.116996657914962 8.348484737073743 0 0 0
75 1 10.224764248567762 5.903270183550988 8.348484813233583 0 0 0
92 1 8.946668751980614 6.6411788272248815 10.437033830998734 0 0 0
95 1 10.224764248019241 4.427452775232655 10.437033892085406 0 0 0
107 1 8.946668751312366 5.16536129957953 12.522727234286606 0 0 0
108 1 10.224764248687471 7.379087676806378 12.522727234286522 0 0 0
76 1 11.502859751432187 8.116996657914962 8.348484737073743 0 0 0
79 1 12.78095524856776 5.903270183550988 8.348484813233583 0 0 0
80 1 14.059050751432185 8.116996657914962 8.348484737073743 0 0 0
83 1 2.5561912480192386 4.427452775232655 10.437033892085408 0 0 0
96 1 11.502859751980614 6.641178827224881 10.437033830998734 0 0 0
111 1 11.502859751312366 5.165361299579532 12.522727234286606 0 0 0
112 1 12.78095524868747 7.379087676806378 12.522727234286522 0 0 0
113 1 2.4801931480418014e-07 2.3579619213150442e-07 14.608421142631931 0 0 0
114 1 1.2780957519808895 2.213726310445934 14.608421111383983 0 0 0
117 1 2.556191248019314 2.3579619254204241e-07 14.608421142631931 0 0 0
118 1 3.834286751980889 2.2137263104459346 14.608421111383983 0 0 0
121 1 5.112382248019314 2.3579619181320069e-07 14.608421142631931 0 0 0
122 1 6.39047775198089 2.2137263104459346 14.608421111383983 0 0 0
125 1 7.668573248019314 2.3579619216328803e-07 14.608421142631931 0 0 0
126 1 8.946668751980887 2.2137263104459346 14.608421111383983 0 0 0
116 1 3.834286751980708 6.64117882722494 14.608421196871383 0 0 0
119 1 5.112382248019144 4.427452775232331 14.608421135784287 0 0 0
120 1 6.390477751980707 6.64117882722494 14.608421196871383 0 0 0
123 1 7.668573248019145 4.427452775232331 14.608421135784287 0 0 0
124 1 8.94666875198071 6.64117882722494 14.608421196871383 0 0 0
127 1 10.224764248019143 4.427452775232331 14.608421135784287 0 0 0
115 1 2.556191248019142 4.427452775232331 14.608421135784287 0 0 0
128 1 11.502859751980708 6.64117882722494 14.608421196871383 0 0 0

Velocities

1 0 0 0
17 0 0 0
18 0 0 0
33 0 0 0
34 0 0 0
37 0 0 0
2 0 0 0
5 0 0 0
6 0 0 0
9 0 0 0
21 0 0 0
22 0 0 0
25 0 0 0
26 0 0 0
38 0 0 0
41 0 0 0
42 0 0 0
45 0 0 0
10 0 0 0
13 0 0 0
29 0 0 0
30 0 0 0
46 0 0 0
14 0 0 0
3 0 0 0
4 0 0 0
7 0 0 0
19 0 0 0
20 0 0 0
23 0 0 0
24 0 0 0
36 0 0 0
39 0 0 0
40 0 0 0
43 0 0 0
8 0 0 0
11 0 0 0
27 0 0 0
28 0 0 0
44 0 0 0
47 0 0 0
12 0 0 0
15 0 0 0
16 0 0 0
31 0 0 0
32 0 0 0
35 0 0 0
48 0 0 0
49 0 0 0
50 0 0 0
53 0 0 0
54 0 0 0
57 0 0 0
58 0 0 0
61 0 0 0
62 0 0 0
51 0 0 0
52 0 0 0
55 0 0 0
56 0 0 0
59 0 0 0
60 0 0 0
63 0 0 0
64 0 0 0
65 0 0 0
81 0 0 0
82 0 0 0
85 0 0 0
97 0 0 0
98 0 0 0
66 0 0 0
69 0 0 0
70 0 0 0
73 0 0 0
86 0 0 0
89 0 0 0
90 0 0 0
93 0 0 0
101 0 0 0
102 0 0 0
105 0 0 0
106 0 0 0
74 0 0 0
77 0 0 0
94 0 0 0
109 0 0 0
110 0 0 0
78 0 0 0
67 0 0 0
68 0 0 0
71 0 0 0
84 0 0 0
87 0 0 0
88 0 0 0
91 0 0 0
99 0 0 0
100 0 0 0
103 0 0 0
104 0 0 0
72 0 0 0
75 0 0 0
92 0 0 0
95 0 0 0
107 0 0 0
108 0 0 0
76 0 0 0
79 0 0 0
80 0 0 0
83 0 0 0
96 0 0 0
111 0 0 0
112 0 0 0
113 0 0 0
114 0 0 0
117 0 0 0
118 0 0 0
121 0 0 0
122 0 0 0
125 0 0 0
126 0 0 0
116 0 0 0
119 0 0 0
120 0 0 0
123 0 0 0
124 0 0 0
127 0 0 0
115 0 0 0
128 0 0 0
