LAMMPS data file via write_data, version 22 Jul 2025, timestep = 4, units = metal

128 atoms
3 atom types

0 10.224764 xlo xhi
0 8.854905 ylo yhi
0 16.69697 zlo zhi
5.112382 0 0 xy xz yz

Masses

1 63.55
2 63.55
3 63.55

Atoms # atomic

1 1 2.5561912612925517 1.4758177338853178 0.0036045293767646507 0 0 0
17 1 2.6076000597799703e-07 2.2219544148700207e-07 2.089291126666645 0 0 0
18 1 1.2780957392403076 2.213726494138818 2.0892911025409484 0 0 0
21 1 2.556191260760006 2.221954417610286e-07 2.089291126666645 0 0 0
33 1 2.556191260759999 1.4758177627687574 4.172072380080264 0 0 0
2 1 3.8342867387074246 3.6895439954762295 0.0036045080660119426 0 0 0
5 1 5.112382261292552 1.4758177338853178 0.0036045293767646377 0 0 0
6 1 6.390477738707425 3.68954399547623 0.0036045080660119643 0 0 0
9 1 7.668573261292552 1.475817733885318 0.0036045293767643467 0 0 0
22 1 3.8342867392403077 2.213726494138818 2.0892911025409484 0 0 0
25 1 5.112382260760006 2.221954421294124e-07 2.089291126666645 0 0 0
26 1 6.390477739240309 2.213726494138818 2.0892911025409484 0 0 0
29 1 7.668573260760006 2.22195442188983e-07 2.089291126666645 0 0 0
34 1 3.834286739240032 3.6895440317747528 4.172072371949241 0 0 0
37 1 5.112382260759999 1.475817762768757 4.172072380080263 0 0 0
38 1 6.3904777392400325 3.6895440317747528 4.172072371949241 0 0 0
41 1 7.66857326076 1.4758177627687572 4.172072380080264 0 0 0
10 1 8.946668738707425 3.6895439954762295 0.0036045080660118568 0 0 0
13 1 10.22476426129255 1.4758177338853178 0.0036045293767648138 0 0 0
30 1 8.946668739240309 2.213726494138818 2.089291102540949 0 0 0
42 1 8.946668739240032 3.6895440317747528 4.172072371949241 0 0 0
45 1 10.22476426076 1.475817762768757 4.172072380080264 0 0 0
14 1 11.502859738707425 3.6895439954762295 0.003604508066011655 0 0 0
46 1 11.50285973924003 3.6895440317747528 4.172072371949242 0 0 0
3 1 5.112382261292389 5.90327020899 0.0036045345134178607 0 0 0
4 1 6.390477738707596 8.116996435162541 0.0036045233968587925 0 0 0
7 1 7.668573261292389 5.90327020899 0.0036045345134179422 0 0 0
20 1 3.83428673924 6.641178955307022 2.0892911345046286 0 0 0
23 1 5.112382260759708 4.427452742511549 2.0892911020732616 0 0 0
24 1 6.39047773924 6.641178955307022 2.089291134504629 0 0 0
27 1 7.668573260759709 4.427452742511549 2.0892911020732616 0 0 0
35 1 5.112382260759683 5.903270251238144 4.172072376975865 0 0 0
36 1 6.390477739240327 8.11699648788993 4.172072395862844 0 0 0
39 1 7.668573260759683 5.903270251238143 4.172072376975865 0 0 0
8 1 8.946668738707595 8.116996435162541 0.0036045233968582504 0 0 0
11 1 10.224764261292387 5.90327020899 0.0036045345134182298 0 0 0
28 1 8.94666873924 6.641178955307022 2.0892911345046286 0 0 0
31 1 10.224764260759708 4.42745274251155 2.0892911020732616 0 0 0
40 1 8.946668739240328 8.11699648788993 4.172072395862844 0 0 0
43 1 10.224764260759684 5.903270251238144 4.172072376975865 0 0 0
12 1 11.502859738707595 8.116996435162541 0.003604523396858889 0 0 0
15 1 12.780955261292387 5.90327020899 0.0036045345134178945 0 0 0
16 1 14.059050738707596 8.116996435162541 0.003604523396859232 0 0 0
19 1 2.5561912607597077 4.42745274251155 2.0892911020732616 0 0 0
32 1 11.50285973924 6.641178955307022 2.0892911345046286 0 0 0
44 1 11.50285973924033 8.11699648788993 4.172072395862844 0 0 0
47 1 12.780955260759683 5.903270251238144 4.172072376975865 0 0 0
48 1 14.059050739240327 8.116996487889931 4.172072395862844 0 0 0
49 1 2.6129254615953485e-07 1.9685782307005812e-07 6.257758976799465 0 0 0
50 1 1.2780957387077214 2.21372647717387 6.257758987447004 0 0 0
53 1 2.556191261292546 1.968578232712177e-07 6.257758976799465 0 0 0
54 1 3.8342867387077213 2.21372647717387 6.257758987447004 0 0 0
57 1 5.112382261292546 1.9685782321552726e-07 6.257758976799465 0 0 0
58 1 6.390477738707723 2.2137264771738696 6.257758987447003 0 0 0
61 1 7.668573261292546 1.9685782315603027e-07 6.257758976799465 0 0 0
62 1 8.946668738707722 2.2137264771738696 6.257758987447004 0 0 0
52 1 3.8342867387073887 6.641178953380215 6.2577589702468375 0 0 0
55 1 5.1123822612923995 4.427452723204202 6.257758978656955 0 0 0
56 1 6.390477738707389 6.641178953380215 6.2577589702468375 0 0 0
59 1 7.668573261292399 4.427452723204202 6.257758978656956 0 0 0
60 1 8.94666873870739 6.641178953380215 6.2577589702468375 0 0 0
63 1 10.2247642612924 4.427452723204202 6.257758978656956 0 0 0
51 1 2.5561912612923985 4.427452723204202 6.257758978656956 0 0 0
64 1 11.502859738707386 6.641178953380215 6.2577589702468375 0 0 0
65 1 1.2780957389129732 0.7379089464433661 8.346348788082379 0 0 0
66 1 2.5561912610871005 2.9516351962849376 8.346348783251756 0 0 0
81 1 2.556191260791736 1.4758177186636128 10.434894401814608 0 0 0
97 1 2.607917180374735e-07 2.1092173017831376e-07 12.52343909867638 0 0 0
98 1 1.2780957392085286 2.2137264676220942 12.523439086675706 0 0 0
101 1 2.556191260791718 2.1092173021110582e-07 12.52343909867638 0 0 0
69 1 3.8342867389129736 0.7379089464433661 8.346348788082379 0 0 0
70 1 5.1123822610871 2.951635196284938 8.346348783251754 0 0 0
73 1 6.390477738912973 0.7379089464433662 8.346348788082379 0 0 0
74 1 7.668573261087101 2.9516351962849376 8.346348783251756 0 0 0
82 1 3.834286739208304 3.6895439854217273 10.434894369260581 0 0 0
85 1 5.112382260791735 1.4758177186636128 10.434894401814608 0 0 0
86 1 6.390477739208302 3.6895439854217273 10.43489436926058 0 0 0
89 1 7.668573260791736 1.4758177186636123 10.434894401814608 0 0 0
102 1 3.8342867392085287 2.2137264676220947 12.523439086675706 0 0 0
105 1 5.112382260791717 2.109217302498924e-07 12.52343909867638 0 0 0
106 1 6.390477739208528 2.2137264676220942 12.523439086675706 0 0 0
109 1 7.668573260791717 2.109217304845284e-07 12.52343909867638 0 0 0
77 1 8.946668738912974 0.7379089464433662 8.346348788082379 0 0 0
78 1 10.2247642610871 2.9516351962849385 8.346348783251756 0 0 0
90 1 8.946668739208302 3.6895439854217273 10.434894369260581 0 0 0
93 1 10.224764260791737 1.4758177186636123 10.434894401814608 0 0 0
110 1 8.946668739208528 2.2137264676220942 12.523439086675706 0 0 0
94 1 11.502859739208304 3.6895439854217273 10.434894369260581 0 0 0
67 1 3.8342867389129016 5.165361465240009 8.346348778044966 0 0 0
68 1 5.112382261086944 7.379087719608095 8.346348774292665 0 0 0
71 1 6.390477738912901 5.165361465240009 8.346348778044966 0 0 0
72 1 7.668573261086945 7.379087719608096 8.346348774292663 0 0 0
83 1 5.112382260791552 5.90327020993452 10.434894421024442 0 0 0
84 1 6.390477739208407 8.116996433718693 10.434894423908354 0 0 0
87 1 7.668573260791552 5.90327020993452 10.43489442102444 0 0 0
100 1 3.834286739208248 6.641178941391601 12.523439101241793 0 0 0
103 1 5.112382260791573 4.427452706122557 12.52343908999173 0 0 0
104 1 6.390477739208248 6.641178941391601 12.523439101241793 0 0 0
107 1 7.668573260791575 4.427452706122557 12.52343908999173 0 0 0
75 1 8.946668738912901 5.165361465240009 8.346348778044966 0 0 0
76 1 10.224764261086946 7.379087719608096 8.346348774292665 0 0 0
88 1 8.946668739208405 8.116996433718693 10.434894423908352 0 0 0
91 1 10.224764260791552 5.903270209934521 10.434894421024442 0 0 0
108 1 8.946668739208246 6.641178941391602 12.523439101241793 0 0 0
111 1 10.224764260791575 4.427452706122557 12.52343908999173 0 0 0
79 1 11.502859738912901 5.165361465240009 8.346348778044966 0 0 0
80 1 12.780955261086943 7.379087719608096 8.346348774292663 0 0 0
92 1 11.502859739208407 8.116996433718693 10.434894423908354 0 0 0
95 1 12.780955260791552 5.903270209934521 10.434894421024442 0 0 0
96 1 14.059050739208406 8.116996433718693 10.434894423908354 0 0 0
99 1 2.5561912607915733 4.427452706122557 12.52343908999173 0 0 0
112 1 11.502859739208247 6.641178941391603 12.523439101241793 0 0 0
113 1 1.27809573891299 0.737908944938487 14.611984726155626 0 0 0
114 1 2.556191261087076 2.951635204254397 14.611984741459823 0 0 0
117 1 3.83428673891299 0.7379089449384869 14.611984726155624 0 0 0
118 1 5.112382261087076 2.951635204254397 14.611984741459823 0 0 0
121 1 6.390477738912989 0.7379089449384868 14.611984726155624 0 0 0
122 1 7.668573261087077 2.951635204254397 14.611984741459823 0 0 0
125 1 8.94666873891299 0.7379089449384869 14.611984726155624 0 0 0
126 1 10.224764261087076 2.951635204254397 14.611984741459823 0 0 0
115 1 3.8342867389129234 5.165361462173171 14.61198471408756 0 0 0
116 1 5.112382261086935 7.379087715306376 14.611984702874622 0 0 0
119 1 6.3904777389129235 5.165361462173171 14.61198471408756 0 0 0
120 1 7.6685732610869355 7.379087715306376 14.61198470287462 0 0 0
123 1 8.946668738912923 5.165361462173171 14.61198471408756 0 0 0
124 1 10.224764261086936 7.379087715306376 14.611984702874622 0 0 0
127 1 11.502859738912923 5.165361462173171 14.61198471408756 0 0 0
128 1 12.780955261086937 7.379087715306376 14.611984702874622 0 0 0

Velocities

1 0 0 0
17 0 0 0
18 0 0 0
21 0 0 0
33 0 0 0
2 0 0 0
5 0 0 0
6 0 0 0
9 0 0 0
22 0 0 0
25 0 0 0
26 0 0 0
29 0 0 0
34 0 0 0
37 0 0 0
38 0 0 0
41 0 0 0
10 0 0 0
13 0 0 0
30 0 0 0
42 0 0 0
45 0 0 0
14 0 0 0
46 0 0 0
3 0 0 0
4 0 0 0
7 0 0 0
20 0 0 0
23 0 0 0
24 0 0 0
27 0 0 0
35 0 0 0
36 0 0 0
39 0 0 0
8 0 0 0
11 0 0 0
28 0 0 0
31 0 0 0
40 0 0 0
43 0 0 0
12 0 0 0
15 0 0 0
16 0 0 0
19 0 0 0
32 0 0 0
44 0 0 0
47 0 0 0
48 0 0 0
49 0 0 0
50 0 0 0
53 0 0 0
54 0 0 0
57 0 0 0
58 0 0 0
61 0 0 0
62 0 0 0
52 0 0 0
55 0 0 0
56 0 0 0
59 0 0 0
60 0 0 0
63 0 0 0
51 0 0 0
64 0 0 0
65 0 0 0
66 0 0 0
81 0 0 0
97 0 0 0
98 0 0 0
101 0 0 0
69 0 0 0
70 0 0 0
73 0 0 0
74 0 0 0
82 0 0 0
85 0 0 0
86 0 0 0
89 0 0 0
102 0 0 0
105 0 0 0
106 0 0 0
109 0 0 0
77 0 0 0
78 0 0 0
90 0 0 0
93 0 0 0
110 0 0 0
94 0 0 0
67 0 0 0
68 0 0 0
71 0 0 0
72 0 0 0
83 0 0 0
84 0 0 0
87 0 0 0
100 0 0 0
103 0 0 0
104 0 0 0
107 0 0 0
75 0 0 0
76 0 0 0
88 0 0 0
91 0 0 0
108 0 0 0
111 0 0 0
79 0 0 0
80 0 0 0
92 0 0 0
95 0 0 0
96 0 0 0
99 0 0 0
112 0 0 0
113 0 0 0
114 0 0 0
117 0 0 0
118 0 0 0
121 0 0 0
122 0 0 0
125 0 0 0
126 0 0 0
115 0 0 0
116 0 0 0
119 0 0 0
120 0 0 0
123 0 0 0
124 0 0 0
127 0 0 0
128 0 0 0
