LAMMPS data file via write_data, version 22 Jul 2025, timestep = 4, units = metal

128 atoms
3 atom types

0 10.224764 xlo xhi
0 8.854905 ylo yhi
0 16.69697 zlo zhi
5.112382 0 0 xy xz yz

Masses

1 63.55
2 63.55
3 63.55

Atoms # atomic

1 1 2.5561912599742658 1.4758177570591013 16.695567783653914 0 0 -1
17 1 2.6047599429513083e-07 1.967364836161962e-07 2.085723782665756 0 0 0
18 1 1.2780957395243087 2.2137264705836044 2.0857237835027918 0 0 0
21 1 2.556191260475994 1.9673648379837662e-07 2.085723782665756 0 0 0
33 1 1.2780957395242907 0.7379089600460701 4.175639720616229 0 0 0
34 1 2.556191260475846 2.9516351912265604 4.17563973802344 0 0 0
2 1 3.834286740025944 3.6895440189465973 16.695567783231535 0 0 -1
5 1 5.112382259974266 1.4758177570591013 16.695567783653914 0 0 -1
6 1 6.390477740025944 3.689544018946597 16.695567783231535 0 0 -1
9 1 7.668573259974265 1.4758177570591018 16.695567783653914 0 0 -1
22 1 3.834286739524309 2.213726470583605 2.0857237835027913 0 0 0
25 1 5.112382260475995 1.9673648349906655e-07 2.0857237826657564 0 0 0
26 1 6.390477739524309 2.213726470583605 2.0857237835027918 0 0 0
29 1 7.668573260475996 1.967364837764906e-07 2.085723782665756 0 0 0
37 1 3.8342867395242903 0.7379089600460706 4.175639720616229 0 0 0
38 1 5.112382260475845 2.9516351912265604 4.17563973802344 0 0 0
41 1 6.39047773952429 0.7379089600460701 4.175639720616229 0 0 0
42 1 7.668573260475845 2.9516351912265604 4.175639738023441 0 0 0
10 1 8.946668740025942 3.6895440189465973 16.695567783231535 0 0 -1
13 1 10.224764259974267 1.4758177570591022 16.695567783653914 0 0 -1
30 1 8.94666873952431 2.213726470583605 2.0857237835027913 0 0 0
45 1 8.946668739524291 0.7379089600460703 4.175639720616229 0 0 0
46 1 10.224764260475848 2.951635191226561 4.17563973802344 0 0 0
14 1 11.502859740025944 3.689544018946597 16.695567783231535 0 0 -1
3 1 5.112382259973712 5.903270241017811 16.695567812130474 0 0 -1
4 1 6.390477740026147 8.11699648719539 16.69556781461491 0 0 -1
7 1 7.668573259973712 5.903270241017811 16.695567812130474 0 0 -1
20 1 3.834286739523974 6.641178956756127 2.0857237919590066 0 0 0
23 1 5.112382260475725 4.427452726011784 2.085723790631455 0 0 0
24 1 6.390477739523974 6.641178956756126 2.0857237919590066 0 0 0
27 1 7.668573260475725 4.427452726011785 2.0857237906314547 0 0 0
35 1 3.834286739524364 5.165361445045071 4.175639707304987 0 0 0
36 1 5.112382260475495 7.379087709272952 4.175639687733198 0 0 0
39 1 6.390477739524364 5.165361445045071 4.175639707304987 0 0 0
40 1 7.668573260475495 7.379087709272952 4.175639687733199 0 0 0
8 1 8.946668740026148 8.11699648719539 16.69556781461491 0 0 -1
11 1 10.22476425997371 5.903270241017811 16.695567812130474 0 0 -1
28 1 8.946668739523975 6.641178956756126 2.0857237919590066 0 0 0
31 1 10.224764260475723 4.427452726011784 2.085723790631455 0 0 0
43 1 8.946668739524364 5.165361445045071 4.175639707304987 0 0 0
44 1 10.224764260475498 7.379087709272951 4.175639687733199 0 0 0
12 1 11.50285974002615 8.11699648719539 16.69556781461491 0 0 -1
15 1 12.780955259973712 5.903270241017811 16.695567812130474 0 0 -1
16 1 14.059050740026148 8.11699648719539 16.69556781461491 0 0 -1
19 1 2.5561912604757233 4.427452726011784 2.0857237906314547 0 0 0
32 1 11.502859739523975 6.641178956756127 2.085723791959007 0 0 0
47 1 11.502859739524364 5.165361445045071 4.175639707304987 0 0 0
48 1 12.780955260475494 7.379087709272952 4.175639687733199 0 0 0
49 1 2.556191259973862 1.4758176735796824 6.262765704142383 0 0 0
50 1 3.8342867400261755 3.689543953269152 6.262765699825423 0 0 0
53 1 5.112382259973863 1.4758176735796826 6.262765704142383 0 0 0
54 1 6.390477740026175 3.689543953269152 6.262765699825423 0 0 0
57 1 7.668573259973863 1.4758176735796824 6.262765704142383 0 0 0
58 1 8.946668740026176 3.6895439532691516 6.262765699825423 0 0 0
61 1 10.224764259973862 1.4758176735796826 6.262765704142383 0 0 0
62 1 11.502859740026175 3.6895439532691516 6.262765699825423 0 0 0
51 1 5.112382259973656 5.903270162876875 6.262765698598755 0 0 0
52 1 6.390477740026236 8.116996391252242 6.262765704977959 0 0 0
55 1 7.668573259973656 5.903270162876875 6.262765698598756 0 0 0
56 1 8.946668740026237 8.116996391252242 6.262765704977959 0 0 0
59 1 10.224764259973655 5.903270162876875 6.262765698598755 0 0 0
60 1 11.502859740026237 8.116996391252242 6.262765704977959 0 0 0
63 1 12.780955259973659 5.903270162876875 6.262765698598755 0 0 0
64 1 14.059050740026237 8.116996391252242 6.262765704977959 0 0 0
65 1 1.278095739671717 0.7379089494819592 8.349932440968445 0 0 0
66 1 2.5561912603284065 2.9516351858763215 8.349932420823457 0 0 0
81 1 2.598336573893947e-07 1.5224156492723455e-07 10.437040485647398 0 0 0
82 1 1.2780957401665756 2.213726421547614 10.437040490067432 0 0 0
85 1 2.5561912598336574 1.5224156436879354e-07 10.437040485647398 0 0 0
97 1 1.2780957401665434 0.7379088657139502 12.52129300704009 0 0 0
98 1 2.5561912598335903 2.951635098168063 12.521293030609357 0 0 0
69 1 3.834286739671717 0.7379089494819593 8.349932440968445 0 0 0
70 1 5.112382260328407 2.951635185876322 8.349932420823457 0 0 0
73 1 6.3904777396717165 0.7379089494819592 8.349932440968445 0 0 0
74 1 7.668573260328408 2.951635185876322 8.349932420823455 0 0 0
86 1 3.8342867401665752 2.213726421547614 10.437040490067432 0 0 0
89 1 5.112382259833657 1.5224156429715623e-07 10.437040485647398 0 0 0
90 1 6.390477740166575 2.2137264215476145 10.437040490067432 0 0 0
93 1 7.668573259833657 1.5224156497914878e-07 10.437040485647398 0 0 0
101 1 3.834286740166543 0.7379088657139501 12.52129300704009 0 0 0
102 1 5.1123822598335895 2.9516350981680635 12.521293030609357 0 0 0
105 1 6.390477740166544 0.7379088657139499 12.52129300704009 0 0 0
106 1 7.6685732598335905 2.9516350981680635 12.521293030609355 0 0 0
77 1 8.946668739671717 0.737908949481959 8.349932440968445 0 0 0
78 1 10.224764260328405 2.9516351858763215 8.349932420823457 0 0 0
94 1 8.946668740166576 2.213726421547614 10.437040490067432 0 0 0
109 1 8.946668740166544 0.7379088657139502 12.52129300704009 0 0 0
110 1 10.224764259833591 2.9516350981680635 12.521293030609357 0 0 0
67 1 3.8342867396718425 5.165361436188615 8.349932447047129 0 0 0
68 1 5.112382260328044 7.379087705281579 8.349932467591907 0 0 0
71 1 6.390477739671843 5.165361436188616 8.349932447047129 0 0 0
72 1 7.668573260328044 7.37908770528158 8.349932467591907 0 0 0
84 1 3.8342867401662057 6.641178928547733 10.437040487070943 0 0 0
87 1 5.1123822598336055 4.427452688384048 10.437040490204737 0 0 0
88 1 6.390477740166206 6.641178928547733 10.437040487070943 0 0 0
91 1 7.668573259833606 4.427452688384048 10.437040490204737 0 0 0
99 1 3.8342867401666094 5.165361346149346 12.521293016303716 0 0 0
100 1 5.112382259833211 7.379087604225324 12.521292991448549 0 0 0
103 1 6.390477740166609 5.165361346149346 12.521293016303716 0 0 0
104 1 7.668573259833212 7.379087604225324 12.521292991448549 0 0 0
75 1 8.946668739671843 5.165361436188616 8.349932447047129 0 0 0
76 1 10.224764260328044 7.379087705281579 8.349932467591907 0 0 0
92 1 8.946668740166206 6.641178928547732 10.437040487070943 0 0 0
95 1 10.224764259833607 4.427452688384046 10.437040490204737 0 0 0
107 1 8.94666874016661 5.165361346149346 12.521293016303716 0 0 0
108 1 10.224764259833213 7.379087604225324 12.521292991448549 0 0 0
79 1 11.502859739671841 5.165361436188615 8.349932447047129 0 0 0
80 1 12.780955260328044 7.379087705281579 8.349932467591906 0 0 0
83 1 2.556191259833605 4.427452688384048 10.437040490204737 0 0 0
96 1 11.502859740166208 6.641178928547732 10.437040487070943 0 0 0
111 1 11.50285974016661 5.165361346149346 12.521293016303716 0 0 0
112 1 12.78095525983321 7.379087604225324 12.521292991448549 0 0 0
113 1 2.603281753357739e-07 1.6939811870922055e-07 14.608401055684356 0 0 0
114 1 1.2780957396721662 2.213726443173627 14.608401056537998 0 0 0
117 1 2.556191260328175 1.6939811876847424e-07 14.608401055684354 0 0 0
118 1 3.8342867396721667 2.213726443173627 14.608401056538 0 0 0
121 1 5.112382260328176 1.693981187037089e-07 14.608401055684354 0 0 0
122 1 6.390477739672166 2.2137264431736265 14.608401056537998 0 0 0
125 1 7.668573260328175 1.6939811900415668e-07 14.608401055684354 0 0 0
126 1 8.946668739672166 2.213726443173627 14.608401056537998 0 0 0
116 1 3.8342867396717817 6.641178942741909 14.608401054044512 0 0 0
119 1 5.112382260327864 4.427452722004719 14.60840105529776 0 0 0
120 1 6.390477739671782 6.641178942741909 14.608401054044512 0 0 0
123 1 7.668573260327865 4.427452722004718 14.60840105529776 0 0 0
124 1 8.946668739671782 6.641178942741909 14.608401054044512 0 0 0
127 1 10.224764260327866 4.427452722004718 14.608401055297762 0 0 0
115 1 2.556191260327865 4.427452722004718 14.608401055297762 0 0 0
128 1 11.502859739671784 6.641178942741909 14.608401054044512 0 0 0

Velocities

1 0 0 0
17 0 0 0
18 0 0 0
21 0 0 0
33 0 0 0
34 0 0 0
2 0 0 0
5 0 0 0
6 0 0 0
9 0 0 0
22 0 0 0
25 0 0 0
26 0 0 0
29 0 0 0
37 0 0 0
38 0 0 0
41 0 0 0
42 0 0 0
10 0 0 0
13 0 0 0
30 0 0 0
45 0 0 0
46 0 0 0
14 0 0 0
3 0 0 0
4 0 0 0
7 0 0 0
20 0 0 0
23 0 0 0
24 0 0 0
27 0 0 0
35 0 0 0
36 0 0 0
39 0 0 0
40 0 0 0
8 0 0 0
11 0 0 0
28 0 0 0
31 0 0 0
43 0 0 0
44 0 0 0
12 0 0 0
15 0 0 0
16 0 0 0
19 0 0 0
32 0 0 0
47 0 0 0
48 0 0 0
49 0 0 0
50 0 0 0
53 0 0 0
54 0 0 0
57 0 0 0
58 0 0 0
61 0 0 0
62 0 0 0
51 0 0 0
52 0 0 0
55 0 0 0
56 0 0 0
59 0 0 0
60 0 0 0
63 0 0 0
64 0 0 0
65 0 0 0
66 0 0 0
81 0 0 0
82 0 0 0
85 0 0 0
97 0 0 0
98 0 0 0
69 0 0 0
70 0 0 0
73 0 0 0
74 0 0 0
86 0 0 0
89 0 0 0
90 0 0 0
93 0 0 0
101 0 0 0
102 0 0 0
105 0 0 0
106 0 0 0
77 0 0 0
78 0 0 0
94 0 0 0
109 0 0 0
110 0 0 0
67 0 0 0
68 0 0 0
71 0 0 0
72 0 0 0
84 0 0 0
87 0 0 0
88 0 0 0
91 0 0 0
99 0 0 0
100 0 0 0
103 0 0 0
104 0 0 0
75 0 0 0
76 0 0 0
92 0 0 0
95 0 0 0
107 0 0 0
108 0 0 0
79 0 0 0
80 0 0 0
83 0 0 0
96 0 0 0
111 0 0 0
112 0 0 0
113 0 0 0
114 0 0 0
117 0 0 0
118 0 0 0
121 0 0 0
122 0 0 0
125 0 0 0
126 0 0 0
116 0 0 0
119 0 0 0
120 0 0 0
123 0 0 0
124 0 0 0
127 0 0 0
115 0 0 0
128 0 0 0
