LAMMPS data file via write_data, version 22 Jul 2025, timestep = 4, units = metal

128 atoms
3 atom types

0 10.224764 xlo xhi
0 8.854905 ylo yhi
0 16.69697 zlo zhi
5.112382 0 0 xy xz yz

Masses

1 63.55
2 63.55
3 63.55

Atoms # atomic

1 1 1.2780957396717172 0.7379089494819596 0.00144744096844459 0 0 0
2 1 2.5561912603284056 2.951635185876322 0.0014474208234558279 0 0 0
17 1 2.598336574372986e-07 1.5224156446730562e-07 2.0885554856473982 0 0 0
18 1 1.2780957401665758 2.213726421547614 2.088555490067432 0 0 0
21 1 2.556191259833657 1.5224156513465508e-07 2.0885554856473982 0 0 0
33 1 1.2780957401665431 0.7379088657139503 4.172808007040089 0 0 0
34 1 2.5561912598335894 2.9516350981680635 4.172808030609357 0 0 0
5 1 3.834286739671717 0.7379089494819596 0.001447440968444579 0 0 0
6 1 5.112382260328407 2.951635185876322 0.0014474208234559534 0 0 0
9 1 6.3904777396717165 0.7379089494819587 0.001447440968444345 0 0 0
10 1 7.668573260328408 2.951635185876322 0.0014474208234555575 0 0 0
22 1 3.834286740166575 2.2137264215476145 2.0885554900674324 0 0 0
25 1 5.112382259833657 1.5224156484192497e-07 2.0885554856473982 0 0 0
26 1 6.390477740166575 2.213726421547614 2.088555490067432 0 0 0
29 1 7.668573259833657 1.5224156508539787e-07 2.0885554856473982 0 0 0
37 1 3.8342867401665424 0.7379088657139506 4.172808007040089 0 0 0
38 1 5.11238225983359 2.951635098168063 4.172808030609357 0 0 0
41 1 6.390477740166543 0.7379088657139503 4.172808007040088 0 0 0
42 1 7.66857325983359 2.951635098168063 4.172808030609357 0 0 0
13 1 8.946668739671717 0.737908949481959 0.0014474409684446367 0 0 0
14 1 10.224764260328406 2.951635185876322 0.001447420823455625 0 0 0
30 1 8.946668740166576 2.213726421547614 2.0885554900674324 0 0 0
45 1 8.946668740166544 0.7379088657139504 4.172808007040089 0 0 0
46 1 10.224764259833591 2.951635098168063 4.172808030609357 0 0 0
3 1 3.8342867396718425 5.165361436188615 0.0014474470471290122 0 0 0
4 1 5.112382260328044 7.379087705281579 0.001447467591906877 0 0 0
7 1 6.390477739671843 5.165361436188616 0.0014474470471291941 0 0 0
8 1 7.668573260328044 7.37908770528158 0.001447467591906913 0 0 0
20 1 3.8342867401662057 6.641178928547732 2.0885554870709435 0 0 0
23 1 5.1123822598336055 4.427452688384048 2.0885554902047363 0 0 0
24 1 6.390477740166205 6.641178928547733 2.0885554870709426 0 0 0
27 1 7.668573259833606 4.427452688384048 2.0885554902047363 0 0 0
35 1 3.834286740166609 5.165361346149346 4.172808016303716 0 0 0
36 1 5.112382259833212 7.379087604225324 4.172807991448549 0 0 0
39 1 6.3904777401666095 5.165361346149346 4.172808016303716 0 0 0
40 1 7.668573259833212 7.379087604225324 4.172807991448549 0 0 0
11 1 8.946668739671843 5.165361436188616 0.0014474470471291553 0 0 0
12 1 10.224764260328044 7.379087705281579 0.001447467591906805 0 0 0
28 1 8.946668740166206 6.641178928547732 2.0885554870709435 0 0 0
31 1 10.224764259833607 4.427452688384046 2.0885554902047363 0 0 0
43 1 8.94666874016661 5.165361346149346 4.1728080163037164 0 0 0
44 1 10.224764259833213 7.379087604225324 4.172807991448548 0 0 0
15 1 11.502859739671841 5.165361436188616 0.0014474470471290183 0 0 0
16 1 12.780955260328042 7.37908770528158 0.0014474675919067704 0 0 0
19 1 2.556191259833605 4.427452688384048 2.0885554902047363 0 0 0
32 1 11.502859740166206 6.641178928547733 2.0885554870709426 0 0 0
47 1 11.50285974016661 5.165361346149346 4.172808016303716 0 0 0
48 1 12.78095525983321 7.379087604225324 4.172807991448549 0 0 0
49 1 2.6032817517030053e-07 1.6939811846902895e-07 6.259916055684354 0 0 0
50 1 1.278095739672166 2.2137264431736265 6.259916056537999 0 0 0
53 1 2.5561912603281747 1.693981188069905e-07 6.2599160556843545 0 0 0
54 1 3.8342867396721663 2.2137264431736265 6.259916056537999 0 0 0
57 1 5.112382260328176 1.6939811856393323e-07 6.259916055684354 0 0 0
58 1 6.390477739672166 2.2137264431736265 6.259916056537999 0 0 0
61 1 7.668573260328175 1.693981191227661e-07 6.259916055684354 0 0 0
62 1 8.946668739672166 2.2137264431736265 6.259916056538 0 0 0
52 1 3.8342867396717817 6.641178942741909 6.259916054044512 0 0 0
55 1 5.112382260327864 4.427452722004718 6.2599160552977615 0 0 0
56 1 6.390477739671782 6.641178942741909 6.259916054044512 0 0 0
59 1 7.668573260327865 4.427452722004718 6.2599160552977615 0 0 0
60 1 8.946668739671782 6.641178942741909 6.259916054044512 0 0 0
63 1 10.224764260327866 4.427452722004718 6.2599160552977615 0 0 0
51 1 2.556191260327863 4.427452722004719 6.259916055297761 0 0 0
64 1 11.502859739671784 6.641178942741909 6.259916054044512 0 0 0
65 1 2.5561912599742658 1.4758177570591013 8.347082783653912 0 0 0
81 1 2.6047599444051583e-07 1.9673648396733685e-07 10.434208782665756 0 0 0
82 1 1.2780957395243089 2.213726470583605 10.434208783502791 0 0 0
85 1 2.5561912604759947 1.9673648392322446e-07 10.434208782665756 0 0 0
97 1 1.2780957395242911 0.7379089600460705 12.52412472061623 0 0 0
98 1 2.556191260475846 2.9516351912265604 12.52412473802344 0 0 0
66 1 3.834286740025944 3.689544018946597 8.347082783231535 0 0 0
69 1 5.112382259974266 1.475817757059102 8.347082783653912 0 0 0
70 1 6.390477740025944 3.689544018946597 8.347082783231535 0 0 0
73 1 7.668573259974265 1.4758177570591018 8.347082783653912 0 0 0
86 1 3.834286739524309 2.213726470583605 10.434208783502791 0 0 0
89 1 5.112382260475996 1.9673648411454218e-07 10.434208782665756 0 0 0
90 1 6.390477739524309 2.213726470583605 10.434208783502791 0 0 0
93 1 7.668573260475996 1.967364836071111e-07 10.434208782665756 0 0 0
101 1 3.8342867395242908 0.7379089600460705 12.52412472061623 0 0 0
102 1 5.112382260475845 2.9516351912265604 12.52412473802344 0 0 0
105 1 6.39047773952429 0.73790896004607 12.52412472061623 0 0 0
106 1 7.668573260475845 2.9516351912265604 12.52412473802344 0 0 0
74 1 8.946668740025945 3.6895440189465973 8.347082783231535 0 0 0
77 1 10.224764259974267 1.4758177570591022 8.347082783653912 0 0 0
94 1 8.94666873952431 2.213726470583605 10.434208783502791 0 0 0
109 1 8.946668739524291 0.7379089600460703 12.52412472061623 0 0 0
110 1 10.224764260475848 2.951635191226561 12.52412473802344 0 0 0
78 1 11.502859740025944 3.689544018946597 8.347082783231535 0 0 0
67 1 5.112382259973712 5.903270241017811 8.347082812130473 0 0 0
68 1 6.390477740026147 8.11699648719539 8.347082814614911 0 0 0
71 1 7.668573259973712 5.903270241017811 8.347082812130473 0 0 0
84 1 3.834286739523974 6.641178956756127 10.434208791959007 0 0 0
87 1 5.112382260475723 4.427452726011784 10.434208790631454 0 0 0
88 1 6.390477739523974 6.641178956756126 10.434208791959007 0 0 0
91 1 7.668573260475723 4.427452726011784 10.434208790631454 0 0 0
99 1 3.8342867395243636 5.165361445045071 12.524124707304988 0 0 0
100 1 5.112382260475495 7.379087709272952 12.524124687733199 0 0 0
103 1 6.390477739524364 5.165361445045071 12.524124707304987 0 0 0
104 1 7.668573260475495 7.379087709272952 12.524124687733199 0 0 0
72 1 8.946668740026148 8.11699648719539 8.347082814614911 0 0 0
75 1 10.22476425997371 5.903270241017811 8.347082812130473 0 0 0
92 1 8.946668739523975 6.641178956756126 10.434208791959007 0 0 0
95 1 10.224764260475723 4.427452726011784 10.434208790631455 0 0 0
107 1 8.946668739524364 5.165361445045071 12.524124707304987 0 0 0
108 1 10.224764260475496 7.379087709272952 12.524124687733199 0 0 0
76 1 11.50285974002615 8.11699648719539 8.347082814614911 0 0 0
79 1 12.780955259973712 5.903270241017811 8.347082812130473 0 0 0
80 1 14.059050740026148 8.11699648719539 8.347082814614911 0 0 0
83 1 2.5561912604757233 4.427452726011784 10.434208790631454 0 0 0
96 1 11.502859739523975 6.641178956756126 10.434208791959007 0 0 0
111 1 11.502859739524364 5.16536144504507 12.524124707304988 0 0 0
112 1 12.780955260475494 7.379087709272952 12.524124687733199 0 0 0
113 1 2.556191259973862 1.4758176735796824 14.611250704142382 0 0 0
114 1 3.834286740026175 3.6895439532691516 14.611250699825423 0 0 0
117 1 5.112382259973862 1.4758176735796822 14.611250704142382 0 0 0
118 1 6.390477740026175 3.689543953269152 14.611250699825424 0 0 0
121 1 7.668573259973862 1.475817673579682 14.611250704142382 0 0 0
122 1 8.946668740026176 3.6895439532691516 14.611250699825423 0 0 0
125 1 10.224764259973862 1.4758176735796829 14.611250704142382 0 0 0
126 1 11.502859740026173 3.6895439532691516 14.611250699825423 0 0 0
115 1 5.112382259973656 5.903270162876875 14.611250698598756 0 0 0
116 1 6.390477740026236 8.116996391252242 14.611250704977957 0 0 0
119 1 7.668573259973656 5.903270162876875 14.611250698598756 0 0 0
120 1 8.946668740026237 8.116996391252242 14.611250704977957 0 0 0
123 1 10.224764259973655 5.903270162876875 14.611250698598756 0 0 0
124 1 11.502859740026237 8.116996391252242 14.611250704977957 0 0 0
127 1 12.780955259973656 5.903270162876875 14.611250698598756 0 0 0
128 1 14.059050740026237 8.116996391252242 14.611250704977957 0 0 0

Velocities

1 0 0 0
2 0 0 0
17 0 0 0
18 0 0 0
21 0 0 0
33 0 0 0
34 0 0 0
5 0 0 0
6 0 0 0
9 0 0 0
10 0 0 0
22 0 0 0
25 0 0 0
26 0 0 0
29 0 0 0
37 0 0 0
38 0 0 0
41 0 0 0
42 0 0 0
13 0 0 0
14 0 0 0
30 0 0 0
45 0 0 0
46 0 0 0
3 0 0 0
4 0 0 0
7 0 0 0
8 0 0 0
20 0 0 0
23 0 0 0
24 0 0 0
27 0 0 0
35 0 0 0
36 0 0 0
39 0 0 0
40 0 0 0
11 0 0 0
12 0 0 0
28 0 0 0
31 0 0 0
43 0 0 0
44 0 0 0
15 0 0 0
16 0 0 0
19 0 0 0
32 0 0 0
47 0 0 0
48 0 0 0
49 0 0 0
50 0 0 0
53 0 0 0
54 0 0 0
57 0 0 0
58 0 0 0
61 0 0 0
62 0 0 0
52 0 0 0
55 0 0 0
56 0 0 0
59 0 0 0
60 0 0 0
63 0 0 0
51 0 0 0
64 0 0 0
65 0 0 0
81 0 0 0
82 0 0 0
85 0 0 0
97 0 0 0
98 0 0 0
66 0 0 0
69 0 0 0
70 0 0 0
73 0 0 0
86 0 0 0
89 0 0 0
90 0 0 0
93 0 0 0
101 0 0 0
102 0 0 0
105 0 0 0
106 0 0 0
74 0 0 0
77 0 0 0
94 0 0 0
109 0 0 0
110 0 0 0
78 0 0 0
67 0 0 0
68 0 0 0
71 0 0 0
84 0 0 0
87 0 0 0
88 0 0 0
91 0 0 0
99 0 0 0
100 0 0 0
103 0 0 0
104 0 0 0
72 0 0 0
75 0 0 0
92 0 0 0
95 0 0 0
107 0 0 0
108 0 0 0
76 0 0 0
79 0 0 0
80 0 0 0
83 0 0 0
96 0 0 0
111 0 0 0
112 0 0 0
113 0 0 0
114 0 0 0
117 0 0 0
118 0 0 0
121 0 0 0
122 0 0 0
125 0 0 0
126 0 0 0
115 0 0 0
116 0 0 0
119 0 0 0
120 0 0 0
123 0 0 0
124 0 0 0
127 0 0 0
128 0 0 0
