LAMMPS data file via write_data, version 22 Jul 2025, timestep = 2, units = metal

128 atoms
3 atom types

0 10.224764 xlo xhi
0 8.854905 ylo yhi
0 16.69697 zlo zhi
5.112382 0 0 xy xz yz

Masses

1 63.55
2 63.55
3 63.55

Atoms # atomic

1 1 1.278095752050814 0.7379088854092022 16.696969734668272 0 0 -1
2 1 2.5561912479491786 2.951635302772068 16.696969734668134 0 0 -1
17 1 2.5561912485028793 1.4758177086734343 2.0856935938221866 0 0 0
33 1 1.2780957521749632 0.737908846936805 4.174242239188548 0 0 0
34 1 2.556191247825051 2.9516352306587876 4.174242244574513 0 0 0
5 1 3.8342867520508137 0.7379088854092021 16.696969734668272 0 0 -1
6 1 5.112382247949179 2.951635302772068 16.696969734668134 0 0 -1
9 1 6.390477752050814 0.7379088854092024 16.696969734668272 0 0 -1
10 1 7.668573247949179 2.951635302772068 16.696969734668134 0 0 -1
18 1 3.8342867514971166 3.689544099588485 2.0856936100217904 0 0 0
21 1 5.112382248502879 1.4758177086734345 2.085693593822186 0 0 0
22 1 6.390477751497116 3.689544099588485 2.085693610021791 0 0 0
25 1 7.668573248502879 1.4758177086734345 2.085693593822186 0 0 0
37 1 3.8342867521749633 0.7379088469368043 4.174242239188548 0 0 0
38 1 5.112382247825051 2.9516352306587876 4.174242244574514 0 0 0
41 1 6.390477752174964 0.7379088469368041 4.174242239188548 0 0 0
42 1 7.6685732478250515 2.9516352306587876 4.174242244574513 0 0 0
13 1 8.946668752050813 0.737908885409202 16.696969734668272 0 0 -1
14 1 10.224764247949178 2.951635302772068 16.696969734668134 0 0 -1
26 1 8.946668751497116 3.6895440995884847 2.0856936100217904 0 0 0
29 1 10.22476424850288 1.4758177086734345 2.0856935938221866 0 0 0
45 1 8.946668752174961 0.7379088469368044 4.174242239188548 0 0 0
46 1 10.224764247825053 2.951635230658787 4.174242244574513 0 0 0
30 1 11.502859751497116 3.689544099588485 2.0856936100217913 0 0 0
3 1 3.834286752050927 5.165361366842656 16.696969734668606 0 0 -1
4 1 5.11238224794908 7.379087815376987 16.696969734668226 0 0 -1
7 1 6.390477752050928 5.165361366842656 16.696969734668606 0 0 -1
8 1 7.66857324794908 7.379087815376987 16.696969734668226 0 0 -1
19 1 5.112382248502772 5.903270167533799 2.0856935359904742 0 0 0
20 1 6.390477751497223 8.116996644868543 2.08569350830988 0 0 0
23 1 7.668573248502772 5.903270167533799 2.0856935359904742 0 0 0
35 1 3.834286752175043 5.165361330745077 4.174242223892608 0 0 0
36 1 5.11238224782489 7.379087743513303 4.174242240260873 0 0 0
39 1 6.390477752175043 5.165361330745077 4.174242223892607 0 0 0
40 1 7.66857324782489 7.379087743513303 4.174242240260872 0 0 0
11 1 8.946668752050927 5.165361366842656 16.696969734668606 0 0 -1
12 1 10.224764247949079 7.379087815376987 16.696969734668226 0 0 -1
24 1 8.94666875149722 8.116996644868543 2.08569350830988 0 0 0
27 1 10.224764248502773 5.903270167533799 2.0856935359904742 0 0 0
43 1 8.946668752175041 5.165361330745077 4.174242223892608 0 0 0
44 1 10.22476424782489 7.3790877435133035 4.174242240260872 0 0 0
15 1 11.502859752050927 5.165361366842656 16.696969734668606 0 0 -1
16 1 12.780955247949079 7.379087815376987 16.696969734668226 0 0 -1
28 1 11.502859751497223 8.116996644868543 2.08569350830988 0 0 0
31 1 12.780955248502773 5.903270167533799 2.0856935359904742 0 0 0
32 1 14.059050751497221 8.116996644868543 2.0856935083098795 0 0 0
47 1 11.502859752175041 5.165361330745077 4.174242223892607 0 0 0
48 1 12.780955247824892 7.3790877435133035 4.174242240260872 0 0 0
49 1 2.4850279073952016e-07 1.8196266895462682e-07 6.26279143511574 0 0 0
50 1 1.2780957514973943 2.213726317084436 6.262791519948009 0 0 0
53 1 2.55619124850279 1.8196266869393824e-07 6.26279143511574 0 0 0
54 1 3.834286751497395 2.213726317084436 6.262791519948009 0 0 0
57 1 5.11238224850279 1.8196266893772917e-07 6.26279143511574 0 0 0
58 1 6.390477751497394 2.2137263170844355 6.262791519948009 0 0 0
61 1 7.668573248502791 1.8196266955648634e-07 6.26279143511574 0 0 0
62 1 8.946668751497395 2.213726317084436 6.262791519948009 0 0 0
52 1 3.834286751497173 6.6411788539671255 6.262791417534342 0 0 0
55 1 5.112382248502755 4.4274527218745074 6.26279149266787 0 0 0
56 1 6.390477751497173 6.641178853967126 6.262791417534342 0 0 0
59 1 7.668573248502754 4.4274527218745074 6.26279149266787 0 0 0
60 1 8.946668751497173 6.641178853967126 6.262791417534342 0 0 0
63 1 10.224764248502755 4.4274527218745074 6.26279149266787 0 0 0
51 1 2.5561912485027536 4.4274527218745074 6.26279149266787 0 0 0
64 1 11.502859751497173 6.6411788539671255 6.262791417534342 0 0 0
65 1 1.2780957520508145 0.7379088083722668 8.348484734668277 0 0 0
66 1 2.556191247949222 2.951635159884212 8.348484734668089 0 0 0
81 1 2.4850288730146286e-07 1.8196282298544236e-07 10.434178593236663 0 0 0
82 1 1.2780957514972977 2.2137263170843404 10.43417850840474 0 0 0
85 1 2.556191248502887 1.8196282236279974e-07 10.434178593236663 0 0 0
97 1 1.2780957521749632 0.7379088469368158 12.522727234769652 0 0 0
98 1 2.5561912478250512 2.9516352306587055 12.522727229383452 0 0 0
69 1 3.8342867520508133 0.7379088083722667 8.348484734668277 0 0 0
70 1 5.112382247949222 2.951635159884212 8.348484734668089 0 0 0
73 1 6.390477752050814 0.7379088083722666 8.348484734668277 0 0 0
74 1 7.668573247949222 2.951635159884212 8.348484734668089 0 0 0
86 1 3.834286751497298 2.2137263170843404 10.43417850840474 0 0 0
89 1 5.112382248502887 1.819628225780318e-07 10.43417859323666 0 0 0
90 1 6.390477751497299 2.2137263170843404 10.43417850840474 0 0 0
93 1 7.668573248502886 1.8196282241554255e-07 10.434178593236663 0 0 0
101 1 3.8342867521749633 0.7379088469368158 12.522727234769652 0 0 0
102 1 5.112382247825051 2.951635230658706 12.522727229383452 0 0 0
105 1 6.390477752174963 0.7379088469368158 12.522727234769652 0 0 0
106 1 7.668573247825051 2.951635230658706 12.522727229383452 0 0 0
77 1 8.946668752050813 0.7379088083722669 8.348484734668277 0 0 0
78 1 10.224764247949222 2.951635159884213 8.348484734668089 0 0 0
94 1 8.946668751497297 2.2137263170843404 10.43417850840474 0 0 0
109 1 8.946668752174963 0.7379088469368158 12.522727234769652 0 0 0
110 1 10.224764247825053 2.9516352306587055 12.522727229383452 0 0 0
67 1 3.8342867520508626 5.165361294085899 8.348484734668416 0 0 0
68 1 5.112382247948997 7.379087672442606 8.348484734668453 0 0 0
71 1 6.390477752050861 5.165361294085899 8.348484734668416 0 0 0
72 1 7.668573247948997 7.379087672442606 8.348484734668453 0 0 0
84 1 3.834286751497076 6.6411788539669985 10.434178610818234 0 0 0
87 1 5.112382248502851 4.427452721874569 10.434178535684676 0 0 0
88 1 6.390477751497077 6.6411788539669985 10.434178610818234 0 0 0
91 1 7.668573248502851 4.427452721874569 10.434178535684676 0 0 0
99 1 3.8342867521750423 5.165361330745042 12.522727250065916 0 0 0
100 1 5.112382247824889 7.379087743513219 12.52272723369742 0 0 0
103 1 6.390477752175043 5.165361330745042 12.522727250065916 0 0 0
104 1 7.668573247824889 7.379087743513219 12.52272723369742 0 0 0
75 1 8.946668752050863 5.165361294085899 8.348484734668414 0 0 0
76 1 10.224764247948997 7.379087672442606 8.348484734668453 0 0 0
92 1 8.946668751497077 6.6411788539669985 10.434178610818234 0 0 0
95 1 10.22476424850285 4.427452721874569 10.434178535684676 0 0 0
107 1 8.946668752175041 5.165361330745042 12.522727250065918 0 0 0
108 1 10.22476424782489 7.379087743513219 12.52272723369742 0 0 0
79 1 11.502859752050862 5.165361294085899 8.348484734668416 0 0 0
80 1 12.780955247948999 7.379087672442607 8.348484734668453 0 0 0
83 1 2.5561912485028513 4.427452721874569 10.434178535684676 0 0 0
96 1 11.502859751497077 6.6411788539669985 10.434178610818234 0 0 0
111 1 11.502859752175041 5.165361330745041 12.522727250065916 0 0 0
112 1 12.780955247824888 7.379087743513219 12.52272723369742 0 0 0
113 1 2.556191248502783 1.4758177086737372 14.611276434530495 0 0 0
114 1 3.8342867514972134 3.68954409958839 14.611276418330526 0 0 0
117 1 5.112382248502783 1.4758177086737372 14.611276434530497 0 0 0
118 1 6.390477751497213 3.68954409958839 14.611276418330526 0 0 0
121 1 7.668573248502783 1.4758177086737372 14.611276434530495 0 0 0
122 1 8.946668751497214 3.68954409958839 14.611276418330526 0 0 0
125 1 10.224764248502783 1.4758177086737367 14.611276434530495 0 0 0
126 1 11.502859751497214 3.6895440995883897 14.611276418330526 0 0 0
115 1 5.112382248502676 5.903270167534026 14.611276492362336 0 0 0
116 1 6.390477751497318 8.116996644868456 14.611276520042582 0 0 0
119 1 7.6685732485026765 5.903270167534026 14.611276492362336 0 0 0
120 1 8.946668751497318 8.116996644868456 14.611276520042583 0 0 0
123 1 10.224764248502677 5.903270167534026 14.611276492362336 0 0 0
124 1 11.502859751497317 8.116996644868456 14.611276520042582 0 0 0
127 1 12.780955248502675 5.903270167534026 14.611276492362336 0 0 0
128 1 14.059050751497317 8.116996644868456 14.611276520042583 0 0 0

Velocities

1 0 0 0
2 0 0 0
17 0 0 0
33 0 0 0
34 0 0 0
5 0 0 0
6 0 0 0
9 0 0 0
10 0 0 0
18 0 0 0
21 0 0 0
22 0 0 0
25 0 0 0
37 0 0 0
38 0 0 0
41 0 0 0
42 0 0 0
13 0 0 0
14 0 0 0
26 0 0 0
29 0 0 0
45 0 0 0
46 0 0 0
30 0 0 0
3 0 0 0
4 0 0 0
7 0 0 0
8 0 0 0
19 0 0 0
20 0 0 0
23 0 0 0
35 0 0 0
36 0 0 0
39 0 0 0
40 0 0 0
11 0 0 0
12 0 0 0
24 0 0 0
27 0 0 0
43 0 0 0
44 0 0 0
15 0 0 0
16 0 0 0
28 0 0 0
31 0 0 0
32 0 0 0
47 0 0 0
48 0 0 0
49 0 0 0
50 0 0 0
53 0 0 0
54 0 0 0
57 0 0 0
58 0 0 0
61 0 0 0
62 0 0 0
52 0 0 0
55 0 0 0
56 0 0 0
59 0 0 0
60 0 0 0
63 0 0 0
51 0 0 0
64 0 0 0
65 0 0 0
66 0 0 0
81 0 0 0
82 0 0 0
85 0 0 0
97 0 0 0
98 0 0 0
69 0 0 0
70 0 0 0
73 0 0 0
74 0 0 0
86 0 0 0
89 0 0 0
90 0 0 0
93 0 0 0
101 0 0 0
102 0 0 0
105 0 0 0
106 0 0 0
77 0 0 0
78 0 0 0
94 0 0 0
109 0 0 0
110 0 0 0
67 0 0 0
68 0 0 0
71 0 0 0
72 0 0 0
84 0 0 0
87 0 0 0
88 0 0 0
91 0 0 0
99 0 0 0
100 0 0 0
103 0 0 0
104 0 0 0
75 0 0 0
76 0 0 0
92 0 0 0
95 0 0 0
107 0 0 0
108 0 0 0
79 0 0 0
80 0 0 0
83 0 0 0
96 0 0 0
111 0 0 0
112 0 0 0
113 0 0 0
114 0 0 0
117 0 0 0
118 0 0 0
121 0 0 0
122 0 0 0
125 0 0 0
126 0 0 0
115 0 0 0
116 0 0 0
119 0 0 0
120 0 0 0
123 0 0 0
124 0 0 0
127 0 0 0
128 0 0 0
