LAMMPS data file via write_data, version 22 Jul 2025, timestep = 4, units = metal

128 atoms
3 atom types

0 10.224764 xlo xhi
0 8.854905 ylo yhi
0 16.69697 zlo zhi
5.112382 0 0 xy xz yz

Masses

1 63.55
2 63.55
3 63.55

Atoms # atomic

1 1 1.2780957400214374 0.7379088803039198 16.695567802016452 0 0 -1
2 1 2.5561912599787537 2.9516351052412966 16.695567782263257 0 0 -1
17 1 2.604807149000807e-07 1.7758388640596748e-07 2.085723795954372 0 0 0
18 1 1.278095739519662 2.213726440472834 2.0857237836475035 0 0 0
21 1 2.5561912604807144 1.7758388667181946e-07 2.0857237959543715 0 0 0
33 1 2.5561912604805546 1.4758177473892349 4.175639709831119 0 0 0
5 1 3.8342867400214375 0.7379088803039193 16.695567802016452 0 0 -1
6 1 5.112382259978754 2.951635105241297 16.695567782263257 0 0 -1
9 1 6.390477740021438 0.7379088803039191 16.695567802016452 0 0 -1
10 1 7.668573259978755 2.9516351052412966 16.695567782263257 0 0 -1
22 1 3.834286739519662 2.213726440472833 2.085723783647503 0 0 0
25 1 5.1123822604807145 1.7758388604461788e-07 2.0857237959543715 0 0 0
26 1 6.390477739519662 2.213726440472833 2.0857237836475035 0 0 0
29 1 7.6685732604807155 1.7758388673795672e-07 2.085723795954371 0 0 0
34 1 3.8342867395195475 3.6895439994860446 4.1756397380751205 0 0 0
37 1 5.112382260480556 1.4758177473892347 4.175639709831119 0 0 0
38 1 6.3904777395195485 3.6895439994860446 4.1756397380751205 0 0 0
41 1 7.6685732604805565 1.4758177473892349 4.1756397098311195 0 0 0
13 1 8.94666874002144 0.7379088803039197 16.695567802016452 0 0 -1
14 1 10.224764259978752 2.9516351052412966 16.695567782263257 0 0 -1
30 1 8.946668739519662 2.213726440472833 2.0857237836475035 0 0 0
42 1 8.946668739519549 3.6895439994860446 4.1756397380751205 0 0 0
45 1 10.224764260480558 1.475817747389235 4.1756397098311195 0 0 0
46 1 11.502859739519549 3.689543999486045 4.1756397380751205 0 0 0
3 1 3.8342867400214287 5.165361347276306 16.695567799611617 0 0 -1
4 1 5.112382259978372 7.37908760765566 16.69556780944538 0 0 -1
7 1 6.390477740021428 5.165361347276306 16.695567799611617 0 0 -1
8 1 7.668573259978373 7.37908760765566 16.69556780944538 0 0 -1
20 1 3.8342867395193423 6.641178927563883 2.0857237867500826 0 0 0
23 1 5.112382260480397 4.427452712224014 2.0857237819111933 0 0 0
24 1 6.390477739519342 6.641178927563883 2.0857237867500826 0 0 0
27 1 7.668573260480397 4.427452712224014 2.0857237819111933 0 0 0
35 1 5.112382260480129 5.9032702039563985 4.175639697157618 0 0 0
36 1 6.390477739519777 8.11699646348515 4.1756397091084105 0 0 0
39 1 7.668573260480129 5.9032702039563985 4.175639697157618 0 0 0
11 1 8.94666874002143 5.165361347276305 16.695567799611617 0 0 -1
12 1 10.224764259978373 7.379087607655661 16.69556780944538 0 0 -1
28 1 8.946668739519342 6.641178927563883 2.0857237867500826 0 0 0
31 1 10.224764260480397 4.427452712224014 2.0857237819111933 0 0 0
40 1 8.946668739519778 8.11699646348515 4.17563970910841 0 0 0
43 1 10.224764260480132 5.9032702039563985 4.175639697157618 0 0 0
15 1 11.502859740021428 5.165361347276306 16.695567799611617 0 0 -1
16 1 12.780955259978374 7.379087607655661 16.69556780944538 0 0 -1
19 1 2.556191260480396 4.427452712224014 2.0857237819111933 0 0 0
32 1 11.502859739519343 6.641178927563882 2.0857237867500826 0 0 0
44 1 11.502859739519774 8.11699646348515 4.17563970910841 0 0 0
47 1 12.78095526048013 5.9032702039564 4.175639697157618 0 0 0
48 1 14.059050739519776 8.11699646348515 4.17563970910841 0 0 0
49 1 1.2780957400215043 0.7379090137892325 6.262765696360026 0 0 0
50 1 2.556191259978362 2.9516353039631675 6.262765704433729 0 0 0
53 1 3.834286740021504 0.7379090137892326 6.2627656963600264 0 0 0
54 1 5.112382259978363 2.951635303963167 6.262765704433727 0 0 0
57 1 6.390477740021504 0.737909013789232 6.262765696360026 0 0 0
58 1 7.668573259978363 2.9516353039631675 6.262765704433729 0 0 0
61 1 8.946668740021504 0.7379090137892318 6.2627656963600264 0 0 0
62 1 10.224764259978361 2.951635303963168 6.262765704433727 0 0 0
51 1 3.8342867400215974 5.165361580323664 6.262765705569529 0 0 0
52 1 5.112382259978229 7.379087818846237 6.26276570147901 0 0 0
55 1 6.3904777400215975 5.165361580323664 6.262765705569531 0 0 0
56 1 7.6685732599782295 7.379087818846237 6.262765701479011 0 0 0
59 1 8.946668740021599 5.165361580323664 6.262765705569531 0 0 0
60 1 10.22476425997823 7.379087818846237 6.262765701479011 0 0 0
63 1 11.502859740021599 5.1653615803236645 6.262765705569531 0 0 0
64 1 12.78095525997823 7.379087818846237 6.262765701479011 0 0 0
65 1 2.556191260332989 1.4758177550423965 8.349932443761476 0 0 0
81 1 2.5983845344923216e-07 2.19407909375237e-07 10.437040486004934 0 0 0
82 1 1.2780957401620259 2.213726489273285 10.437040495155658 0 0 0
85 1 2.556191259838453 2.1940790943397626e-07 10.437040486004934 0 0 0
97 1 2.556191259838226 1.4758177650827475 12.521293019077739 0 0 0
66 1 3.834286739667057 3.6895440080301385 8.34993241902909 0 0 0
69 1 5.112382260332988 1.4758177550423963 8.349932443761476 0 0 0
70 1 6.390477739667055 3.6895440080301385 8.34993241902909 0 0 0
73 1 7.668573260332988 1.4758177550423963 8.349932443761478 0 0 0
86 1 3.834286740162026 2.213726489273285 10.437040495155658 0 0 0
89 1 5.112382259838455 2.1940790896633165e-07 10.437040486004934 0 0 0
90 1 6.3904777401620265 2.2137264892732844 10.437040495155658 0 0 0
93 1 7.668573259838453 2.194079091999123e-07 10.437040486004936 0 0 0
98 1 3.8342867401619363 3.689544032170817 12.521293024342537 0 0 0
101 1 5.112382259838226 1.4758177650827475 12.521293019077739 0 0 0
102 1 6.390477740161937 3.689544032170817 12.521293024342537 0 0 0
105 1 7.668573259838225 1.4758177650827478 12.521293019077739 0 0 0
74 1 8.946668739667057 3.689544008030138 8.349932419029091 0 0 0
77 1 10.22476426033299 1.475817755042397 8.349932443761476 0 0 0
94 1 8.946668740162027 2.2137264892732844 10.437040495155658 0 0 0
106 1 8.946668740161936 3.6895440321708164 12.521293024342537 0 0 0
109 1 10.224764259838226 1.4758177650827475 12.52129301907774 0 0 0
78 1 11.502859739667057 3.6895440080301385 8.34993241902909 0 0 0
110 1 11.502859740161938 3.689544032170816 12.521293024342539 0 0 0
67 1 5.112382260332592 5.903270214838797 8.349932464977533 0 0 0
68 1 6.390477739667334 8.116996466214813 8.349932446396217 0 0 0
71 1 7.668573260332593 5.903270214838796 8.349932464977533 0 0 0
84 1 3.8342867401617657 6.641178956621418 10.437040487857605 0 0 0
87 1 5.112382259837914 4.427452752897558 10.437040487245064 0 0 0
88 1 6.390477740161765 6.641178956621418 10.437040487857605 0 0 0
91 1 7.668573259837915 4.427452752897558 10.437040487245064 0 0 0
99 1 5.11238225983769 5.903270240366443 12.52129299283572 0 0 0
100 1 6.390477740162208 8.116996491696959 12.52129300587429 0 0 0
103 1 7.66857325983769 5.903270240366443 12.52129299283572 0 0 0
72 1 8.946668739667336 8.116996466214811 8.349932446396219 0 0 0
75 1 10.224764260332593 5.903270214838796 8.349932464977533 0 0 0
92 1 8.946668740161765 6.641178956621418 10.437040487857605 0 0 0
95 1 10.224764259837915 4.427452752897559 10.437040487245064 0 0 0
104 1 8.946668740162208 8.116996491696959 12.52129300587429 0 0 0
107 1 10.224764259837688 5.903270240366443 12.52129299283572 0 0 0
76 1 11.502859739667336 8.116996466214811 8.349932446396217 0 0 0
79 1 12.780955260332593 5.903270214838796 8.349932464977533 0 0 0
80 1 14.059050739667336 8.116996466214813 8.349932446396217 0 0 0
83 1 2.556191259837915 4.427452752897558 10.437040487245064 0 0 0
96 1 11.502859740161766 6.641178956621418 10.437040487857605 0 0 0
108 1 11.502859740162208 8.116996491696959 12.52129300587429 0 0 0
111 1 12.780955259837688 5.903270240366442 12.52129299283572 0 0 0
112 1 14.059050740162208 8.116996491696959 12.52129300587429 0 0 0
113 1 2.6033275626407136e-07 1.6580544334969317e-07 14.608401052333527 0 0 0
114 1 1.2780957396675838 2.2137264547372557 14.608401059350426 0 0 0
117 1 2.5561912603327563 1.6580544377611672e-07 14.608401052333527 0 0 0
118 1 3.8342867396675837 2.2137264547372557 14.608401059350424 0 0 0
121 1 5.112382260332756 1.65805443362937e-07 14.608401052333525 0 0 0
122 1 6.390477739667585 2.2137264547372557 14.608401059350424 0 0 0
125 1 7.668573260332756 1.6580544358683667e-07 14.608401052333527 0 0 0
126 1 8.946668739667583 2.2137264547372557 14.608401059350426 0 0 0
116 1 3.8342867396672027 6.641178942511486 14.608401059225232 0 0 0
119 1 5.112382260332442 4.427452715741596 14.608401052918532 0 0 0
120 1 6.390477739667203 6.641178942511486 14.608401059225232 0 0 0
123 1 7.668573260332442 4.427452715741596 14.608401052918532 0 0 0
124 1 8.946668739667203 6.641178942511486 14.608401059225232 0 0 0
127 1 10.224764260332446 4.427452715741596 14.608401052918532 0 0 0
115 1 2.556191260332444 4.427452715741596 14.608401052918532 0 0 0
128 1 11.502859739667203 6.641178942511486 14.608401059225232 0 0 0

Velocities

1 0 0 0
2 0 0 0
17 0 0 0
18 0 0 0
21 0 0 0
33 0 0 0
5 0 0 0
6 0 0 0
9 0 0 0
10 0 0 0
22 0 0 0
25 0 0 0
26 0 0 0
29 0 0 0
34 0 0 0
37 0 0 0
38 0 0 0
41 0 0 0
13 0 0 0
14 0 0 0
30 0 0 0
42 0 0 0
45 0 0 0
46 0 0 0
3 0 0 0
4 0 0 0
7 0 0 0
8 0 0 0
20 0 0 0
23 0 0 0
24 0 0 0
27 0 0 0
35 0 0 0
36 0 0 0
39 0 0 0
11 0 0 0
12 0 0 0
28 0 0 0
31 0 0 0
40 0 0 0
43 0 0 0
15 0 0 0
16 0 0 0
19 0 0 0
32 0 0 0
44 0 0 0
47 0 0 0
48 0 0 0
49 0 0 0
50 0 0 0
53 0 0 0
54 0 0 0
57 0 0 0
58 0 0 0
61 0 0 0
62 0 0 0
51 0 0 0
52 0 0 0
55 0 0 0
56 0 0 0
59 0 0 0
60 0 0 0
63 0 0 0
64 0 0 0
65 0 0 0
81 0 0 0
82 0 0 0
85 0 0 0
97 0 0 0
66 0 0 0
69 0 0 0
70 0 0 0
73 0 0 0
86 0 0 0
89 0 0 0
90 0 0 0
93 0 0 0
98 0 0 0
101 0 0 0
102 0 0 0
105 0 0 0
74 0 0 0
77 0 0 0
94 0 0 0
106 0 0 0
109 0 0 0
78 0 0 0
110 0 0 0
67 0 0 0
68 0 0 0
71 0 0 0
84 0 0 0
87 0 0 0
88 0 0 0
91 0 0 0
99 0 0 0
100 0 0 0
103 0 0 0
72 0 0 0
75 0 0 0
92 0 0 0
95 0 0 0
104 0 0 0
107 0 0 0
76 0 0 0
79 0 0 0
80 0 0 0
83 0 0 0
96 0 0 0
108 0 0 0
111 0 0 0
112 0 0 0
113 0 0 0
114 0 0 0
117 0 0 0
118 0 0 0
121 0 0 0
122 0 0 0
125 0 0 0
126 0 0 0
116 0 0 0
119 0 0 0
120 0 0 0
123 0 0 0
124 0 0 0
127 0 0 0
115 0 0 0
128 0 0 0
