LAMMPS data file via write_data, version 22 Jul 2025, timestep = 4, units = metal

128 atoms
3 atom types

0 10.224764 xlo xhi
0 8.854905 ylo yhi
0 16.69697 zlo zhi
5.112382 0 0 xy xz yz

Masses

1 63.55
2 63.55
3 63.55

Atoms # atomic

1 1 2.5561912612925646 1.4758177422104741 0.0036045266873356127 0 0 0
17 1 1.2780957392401238 0.7379090196437278 2.0892911167297665 0 0 0
18 1 2.556191260759846 2.951635296187814 2.0892911397134446 0 0 0
33 1 2.556191260759841 1.4758176975617447 4.172072376564263 0 0 0
2 1 3.83428673870747 3.689544000574527 0.003604556062721536 0 0 0
5 1 5.112382261292565 1.4758177422104741 0.0036045266873349453 0 0 0
6 1 6.39047773870747 3.6895440005745264 0.0036045560627217354 0 0 0
9 1 7.668573261292566 1.4758177422104737 0.0036045266873351396 0 0 0
21 1 3.8342867392401234 0.737909019643728 2.0892911167297665 0 0 0
22 1 5.112382260759846 2.9516352961878143 2.0892911397134446 0 0 0
25 1 6.390477739240123 0.7379090196437286 2.089291116729766 0 0 0
26 1 7.668573260759846 2.951635296187814 2.0892911397134446 0 0 0
34 1 3.8342867392401216 3.68954396743812 4.172072372143038 0 0 0
37 1 5.1123822607598415 1.4758176975617454 4.172072376564263 0 0 0
38 1 6.390477739240122 3.68954396743812 4.172072372143037 0 0 0
41 1 7.668573260759842 1.475817697561745 4.172072376564263 0 0 0
10 1 8.94666873870747 3.6895440005745255 0.00360455606272175 0 0 0
13 1 10.224764261292565 1.475817742210474 0.003604526687335566 0 0 0
29 1 8.946668739240124 0.7379090196437278 2.089291116729766 0 0 0
30 1 10.224764260759844 2.9516352961878134 2.0892911397134446 0 0 0
42 1 8.946668739240122 3.68954396743812 4.172072372143037 0 0 0
45 1 10.224764260759843 1.4758176975617447 4.172072376564264 0 0 0
14 1 11.50285973870747 3.6895440005745255 0.0036045560627224753 0 0 0
46 1 11.502859739240122 3.68954396743812 4.172072372143037 0 0 0
3 1 5.112382261292398 5.903270223756922 0.003604504778216791 0 0 0
4 1 6.390477738707605 8.116996453156386 0.0036045078302089154 0 0 0
7 1 7.668573261292398 5.903270223756922 0.0036045047782163903 0 0 0
19 1 3.834286739240136 5.165361569169553 2.0892911120078463 0 0 0
20 1 5.112382260759869 7.379087807886838 2.089291097329843 0 0 0
23 1 6.390477739240136 5.165361569169551 2.0892911120078463 0 0 0
24 1 7.668573260759868 7.379087807886837 2.089291097329843 0 0 0
35 1 5.112382260759847 5.903270177077788 4.172072391249995 0 0 0
36 1 6.390477739240148 8.116996412859287 4.172072384915344 0 0 0
39 1 7.668573260759848 5.903270177077788 4.172072391249995 0 0 0
8 1 8.946668738707604 8.116996453156384 0.0036045078302091864 0 0 0
11 1 10.224764261292396 5.9032702237569215 0.0036045047782165035 0 0 0
27 1 8.946668739240137 5.165361569169551 2.0892911120078463 0 0 0
28 1 10.22476426075987 7.379087807886837 2.089291097329843 0 0 0
40 1 8.946668739240145 8.116996412859287 4.172072384915343 0 0 0
43 1 10.224764260759846 5.903270177077788 4.172072391249996 0 0 0
12 1 11.502859738707606 8.116996453156384 0.0036045078302087493 0 0 0
15 1 12.780955261292396 5.903270223756922 0.003604504778216513 0 0 0
16 1 14.059050738707608 8.116996453156384 0.003604507830209318 0 0 0
31 1 11.502859739240137 5.165361569169551 2.089291112007847 0 0 0
32 1 12.780955260759871 7.379087807886837 2.089291097329843 0 0 0
44 1 11.502859739240147 8.116996412859287 4.172072384915343 0 0 0
47 1 12.780955260759848 5.903270177077788 4.172072391249996 0 0 0
48 1 14.05905073924015 8.116996412859287 4.172072384915343 0 0 0
49 1 1.278095738707537 0.7379089482817396 6.257758969876222 0 0 0
50 1 2.5561912612925215 2.9516351899837456 6.257758964393787 0 0 0
53 1 3.834286738707537 0.7379089482817389 6.257758969876222 0 0 0
54 1 5.112382261292522 2.951635189983745 6.257758964393787 0 0 0
57 1 6.390477738707536 0.7379089482817395 6.257758969876222 0 0 0
58 1 7.668573261292521 2.951635189983745 6.257758964393786 0 0 0
61 1 8.946668738707535 0.737908948281739 6.257758969876222 0 0 0
62 1 10.224764261292522 2.951635189983746 6.257758964393786 0 0 0
51 1 3.834286738707511 5.165361459180229 6.2577589855774525 0 0 0
52 1 5.112382261292374 7.379087706986133 6.257758993297424 0 0 0
55 1 6.390477738707511 5.165361459180228 6.2577589855774525 0 0 0
56 1 7.668573261292373 7.379087706986134 6.257758993297425 0 0 0
59 1 8.94666873870751 5.165361459180229 6.2577589855774525 0 0 0
60 1 10.224764261292371 7.379087706986133 6.257758993297424 0 0 0
63 1 11.50285973870751 5.165361459180228 6.2577589855774525 0 0 0
64 1 12.780955261292373 7.379087706986134 6.257758993297424 0 0 0
65 1 2.610871182750759e-07 2.0331225542598418e-07 8.346348776534334 0 0 0
66 1 1.2780957389131329 2.213726462294424 8.346348800091056 0 0 0
69 1 2.5561912610871187 2.033122564371536e-07 8.346348776534334 0 0 0
81 1 2.556191260791729 1.4758177150968486 10.43489440935054 0 0 0
97 1 1.2780957392083945 0.7379089379688745 12.523439090304494 0 0 0
98 1 2.556191260791679 2.9516352009605114 12.523439075929952 0 0 0
70 1 3.834286738913133 2.2137264622944235 8.346348800091056 0 0 0
73 1 5.112382261087119 2.0331225613445572e-07 8.346348776534334 0 0 0
74 1 6.390477738913132 2.213726462294424 8.346348800091056 0 0 0
77 1 7.668573261087119 2.033122561796863e-07 8.346348776534334 0 0 0
82 1 3.83428673920831 3.6895439888445494 10.434894435489596 0 0 0
85 1 5.112382260791728 1.4758177150968481 10.43489440935054 0 0 0
86 1 6.390477739208311 3.68954398884455 10.434894435489596 0 0 0
89 1 7.668573260791729 1.475817715096848 10.43489440935054 0 0 0
101 1 3.8342867392083946 0.7379089379688747 12.523439090304494 0 0 0
102 1 5.11238226079168 2.9516352009605105 12.523439075929952 0 0 0
105 1 6.390477739208394 0.7379089379688744 12.523439090304494 0 0 0
106 1 7.668573260791678 2.9516352009605105 12.523439075929952 0 0 0
78 1 8.946668738913132 2.213726462294424 8.346348800091056 0 0 0
90 1 8.946668739208311 3.6895439888445494 10.434894435489598 0 0 0
93 1 10.224764260791732 1.4758177150968477 10.43489440935054 0 0 0
109 1 8.946668739208393 0.7379089379688745 12.523439090304494 0 0 0
110 1 10.22476426079168 2.9516352009605105 12.523439075929952 0 0 0
94 1 11.50285973920831 3.68954398884455 10.434894435489598 0 0 0
68 1 3.834286738912844 6.641178947861061 8.346348757465076 0 0 0
71 1 5.112382261086982 4.427452711053049 8.346348789604589 0 0 0
72 1 6.390477738912844 6.641178947861061 8.346348757465076 0 0 0
75 1 7.6685732610869835 4.42745271105305 8.346348789604589 0 0 0
83 1 5.112382260791545 5.903270213380512 10.43489438381364 0 0 0
84 1 6.390477739208413 8.116996430175146 10.4348943873448 0 0 0
87 1 7.668573260791545 5.903270213380512 10.43489438381364 0 0 0
99 1 3.834286739208321 5.1653614711657365 12.523439098368247 0 0 0
100 1 5.112382260791535 7.379087716204806 12.523439111992314 0 0 0
103 1 6.390477739208322 5.1653614711657365 12.523439098368247 0 0 0
104 1 7.6685732607915345 7.379087716204806 12.523439111992314 0 0 0
76 1 8.946668738912845 6.641178947861061 8.346348757465076 0 0 0
79 1 10.224764261086982 4.427452711053049 8.346348789604589 0 0 0
88 1 8.946668739208413 8.116996430175146 10.4348943873448 0 0 0
91 1 10.224764260791545 5.903270213380512 10.43489438381364 0 0 0
107 1 8.946668739208322 5.1653614711657365 12.52343909836825 0 0 0
108 1 10.224764260791535 7.379087716204805 12.523439111992314 0 0 0
67 1 2.556191261086982 4.427452711053049 8.34634878960459 0 0 0
80 1 11.502859738912845 6.641178947861061 8.346348757465076 0 0 0
92 1 11.502859739208414 8.116996430175146 10.4348943873448 0 0 0
95 1 12.780955260791544 5.903270213380512 10.43489438381364 0 0 0
96 1 14.059050739208416 8.116996430175146 10.4348943873448 0 0 0
111 1 11.502859739208322 5.1653614711657365 12.523439098368247 0 0 0
112 1 12.780955260791533 7.379087716204806 12.523439111992314 0 0 0
113 1 2.610871133769749e-07 2.0053831894106108e-07 14.611984728393406 0 0 0
114 1 1.2780957389131444 2.2137264651183663 14.611984711900934 0 0 0
117 1 2.5561912610871125 2.0053831940785207e-07 14.611984728393406 0 0 0
118 1 3.8342867389131445 2.213726465118366 14.611984711900934 0 0 0
121 1 5.112382261087113 2.0053831885159709e-07 14.611984728393406 0 0 0
122 1 6.390477738913145 2.2137264651183655 14.611984711900934 0 0 0
125 1 7.668573261087113 2.005383190080923e-07 14.611984728393406 0 0 0
126 1 8.946668738913143 2.2137264651183655 14.611984711900934 0 0 0
116 1 3.8342867389128603 6.641178943520578 14.611984732422032 0 0 0
119 1 5.112382261086954 4.4274527205499306 14.611984711838076 0 0 0
120 1 6.39047773891286 6.641178943520578 14.611984732422032 0 0 0
123 1 7.668573261086953 4.4274527205499306 14.611984711838076 0 0 0
124 1 8.946668738912862 6.641178943520578 14.611984732422032 0 0 0
127 1 10.224764261086953 4.4274527205499306 14.611984711838076 0 0 0
115 1 2.5561912610869553 4.4274527205499306 14.611984711838076 0 0 0
128 1 11.502859738912859 6.641178943520578 14.611984732422032 0 0 0

Velocities

1 0 0 0
17 0 0 0
18 0 0 0
33 0 0 0
2 0 0 0
5 0 0 0
6 0 0 0
9 0 0 0
21 0 0 0
22 0 0 0
25 0 0 0
26 0 0 0
34 0 0 0
37 0 0 0
38 0 0 0
41 0 0 0
10 0 0 0
13 0 0 0
29 0 0 0
30 0 0 0
42 0 0 0
45 0 0 0
14 0 0 0
46 0 0 0
3 0 0 0
4 0 0 0
7 0 0 0
19 0 0 0
20 0 0 0
23 0 0 0
24 0 0 0
35 0 0 0
36 0 0 0
39 0 0 0
8 0 0 0
11 0 0 0
27 0 0 0
28 0 0 0
40 0 0 0
43 0 0 0
12 0 0 0
15 0 0 0
16 0 0 0
31 0 0 0
32 0 0 0
44 0 0 0
47 0 0 0
48 0 0 0
49 0 0 0
50 0 0 0
53 0 0 0
54 0 0 0
57 0 0 0
58 0 0 0
61 0 0 0
62 0 0 0
51 0 0 0
52 0 0 0
55 0 0 0
56 0 0 0
59 0 0 0
60 0 0 0
63 0 0 0
64 0 0 0
65 0 0 0
66 0 0 0
69 0 0 0
81 0 0 0
97 0 0 0
98 0 0 0
70 0 0 0
73 0 0 0
74 0 0 0
77 0 0 0
82 0 0 0
85 0 0 0
86 0 0 0
89 0 0 0
101 0 0 0
102 0 0 0
105 0 0 0
106 0 0 0
78 0 0 0
90 0 0 0
93 0 0 0
109 0 0 0
110 0 0 0
94 0 0 0
68 0 0 0
71 0 0 0
72 0 0 0
75 0 0 0
83 0 0 0
84 0 0 0
87 0 0 0
99 0 0 0
100 0 0 0
103 0 0 0
104 0 0 0
76 0 0 0
79 0 0 0
88 0 0 0
91 0 0 0
107 0 0 0
108 0 0 0
67 0 0 0
80 0 0 0
92 0 0 0
95 0 0 0
96 0 0 0
111 0 0 0
112 0 0 0
113 0 0 0
114 0 0 0
117 0 0 0
118 0 0 0
121 0 0 0
122 0 0 0
125 0 0 0
126 0 0 0
116 0 0 0
119 0 0 0
120 0 0 0
123 0 0 0
124 0 0 0
127 0 0 0
115 0 0 0
128 0 0 0
