LAMMPS data file via write_data, version 22 Jul 2025, timestep = 3, units = metal

128 atoms
3 atom types

0 10.224764 xlo xhi
0 8.854905 ylo yhi
0 16.69697 zlo zhi
5.112382 0 0 xy xz yz

Masses

1 63.55
2 63.55
3 63.55

Atoms # atomic

1 1 1.27809571392956 0.7379088740744574 16.696969997406228 0 0 -1
2 1 2.5561912860706446 2.9516351163052117 16.69696999740647 0 0 -1
17 1 2.863268273075846e-07 1.5231667796505488e-07 2.0885944922165987 0 0 0
18 1 1.2780957136737099 2.2137264826824703 2.088594521704835 0 0 0
21 1 2.5561912863268277 1.5231667692841893e-07 2.0885944922165995 0 0 0
33 1 2.5561912857516 1.4758178302604565 4.177132343521452 0 0 0
5 1 3.83428671392956 0.7379088740744582 16.696969997406228 0 0 -1
6 1 5.112382286070645 2.9516351163052112 16.69696999740647 0 0 -1
9 1 6.390477713929558 0.7379088740744578 16.696969997406228 0 0 -1
10 1 7.668573286070645 2.9516351163052112 16.69696999740647 0 0 -1
22 1 3.83428671367371 2.2137264826824703 2.0885945217048354 0 0 0
25 1 5.112382286326827 1.5231667832607486e-07 2.088594492216599 0 0 0
26 1 6.39047771367371 2.2137264826824703 2.088594521704835 0 0 0
29 1 7.668573286326827 1.5231667713737545e-07 2.088594492216599 0 0 0
34 1 3.8342867142486785 3.689544005521823 4.177132375552407 0 0 0
37 1 5.1123822857515995 1.4758178302604565 4.177132343521452 0 0 0
38 1 6.390477714248677 3.689544005521823 4.177132375552407 0 0 0
41 1 7.6685732857516 1.475817830260456 4.177132343521452 0 0 0
13 1 8.946668713929562 0.7379088740744576 16.696969997406228 0 0 -1
14 1 10.224764286070645 2.951635116305212 16.69696999740647 0 0 -1
30 1 8.94666871367371 2.213726482682469 2.088594521704835 0 0 0
42 1 8.946668714248679 3.689544005521823 4.177132375552407 0 0 0
45 1 10.224764285751599 1.475817830260457 4.177132343521452 0 0 0
46 1 11.502859714248677 3.689544005521823 4.177132375552407 0 0 0
3 1 3.8342867139295844 5.165361307517169 16.696969997405898 0 0 -1
4 1 5.1123822860700185 7.379087626098315 16.696969997406093 0 0 -1
7 1 6.3904777139295845 5.165361307517169 16.696969997405898 0 0 -1
8 1 7.668573286070018 7.379087626098315 16.696969997406093 0 0 -1
20 1 3.834286713673166 6.641178940028354 2.0885945305545413 0 0 0
23 1 5.112382286326337 4.427452716084348 2.0885944947402773 0 0 0
24 1 6.3904777136731665 6.641178940028353 2.0885945305545413 0 0 0
27 1 7.668573286326334 4.427452716084349 2.088594494740277 0 0 0
35 1 5.112382285750722 5.903270263872035 4.177132363091212 0 0 0
36 1 6.390477714249049 8.116996415961049 4.1771323703308045 0 0 0
39 1 7.668573285750722 5.903270263872037 4.177132363091211 0 0 0
11 1 8.946668713929585 5.165361307517169 16.696969997405898 0 0 -1
12 1 10.22476428607002 7.379087626098314 16.696969997406093 0 0 -1
28 1 8.946668713673166 6.641178940028354 2.0885945305545413 0 0 0
31 1 10.224764286326337 4.427452716084348 2.0885944947402764 0 0 0
40 1 8.946668714249048 8.116996415961049 4.1771323703308045 0 0 0
43 1 10.224764285750721 5.903270263872036 4.177132363091211 0 0 0
15 1 11.502859713929585 5.165361307517169 16.696969997405898 0 0 -1
16 1 12.780955286070018 7.379087626098315 16.696969997406093 0 0 -1
19 1 2.556191286326336 4.427452716084348 2.088594494740277 0 0 0
32 1 11.502859713673168 6.641178940028354 2.088594530554541 0 0 0
44 1 11.50285971424905 8.116996415961049 4.177132370330804 0 0 0
47 1 12.780955285750721 5.903270263872036 4.177132363091211 0 0 0
48 1 14.059050714249048 8.116996415961049 4.1771323703308045 0 0 0
49 1 2.852453732789345e-07 1.6459245630714715e-07 6.262837103452017 0 0 0
50 1 1.2780957147552598 2.2137265791565754 6.262837109190356 0 0 0
53 1 2.5561912852453728 1.6459245650766672e-07 6.262837103452017 0 0 0
54 1 3.8342867147552595 2.2137265791565754 6.262837109190356 0 0 0
57 1 5.112382285245372 1.645924569349048e-07 6.262837103452018 0 0 0
58 1 6.390477714755259 2.213726579156576 6.262837109190356 0 0 0
61 1 7.6685732852453725 1.645924573470515e-07 6.262837103452017 0 0 0
62 1 8.94666871475526 2.213726579156576 6.262837109190356 0 0 0
52 1 3.834286714754839 6.641178986256394 6.26283711314338 0 0 0
55 1 5.112382285244534 4.427452731536985 6.262837115883496 0 0 0
56 1 6.390477714754839 6.641178986256394 6.262837113143381 0 0 0
59 1 7.668573285244534 4.427452731536985 6.262837115883496 0 0 0
60 1 8.94666871475484 6.641178986256394 6.262837113143381 0 0 0
63 1 10.224764285244534 4.427452731536985 6.262837115883495 0 0 0
51 1 2.5561912852445334 4.427452731536985 6.262837115883495 0 0 0
64 1 11.50285971475484 6.641178986256393 6.262837113143381 0 0 0
65 1 2.556191285417597 1.4758178326822853 8.348485006808081 0 0 0
81 1 2.8524572746733444e-07 1.6459260321831818e-07 10.434132357903064 0 0 0
82 1 1.2780957147549046 2.213726579156987 10.434132352165173 0 0 0
85 1 2.5561912852457285 1.6459260260960944e-07 10.434132357903064 0 0 0
97 1 2.5561912857515923 1.475817830260466 12.51983772505798 0 0 0
66 1 3.8342867145826043 3.689544019044934 8.348485006808042 0 0 0
69 1 5.112382285417599 1.4758178326822844 8.348485006808081 0 0 0
70 1 6.390477714582605 3.689544019044934 8.348485006808042 0 0 0
73 1 7.668573285417597 1.4758178326822848 8.348485006808081 0 0 0
86 1 3.834286714754904 2.213726579156988 10.434132352165173 0 0 0
89 1 5.112382285245728 1.6459260239195172e-07 10.434132357903064 0 0 0
90 1 6.390477714754905 2.213726579156988 10.434132352165175 0 0 0
93 1 7.668573285245728 1.6459260348970134e-07 10.434132357903064 0 0 0
98 1 3.834286714248686 3.689544005521844 12.51983769302587 0 0 0
101 1 5.1123822857515915 1.475817830260465 12.51983772505798 0 0 0
102 1 6.3904777142486875 3.689544005521845 12.51983769302587 0 0 0
105 1 7.6685732857515925 1.4758178302604645 12.519837725057984 0 0 0
74 1 8.946668714582604 3.689544019044933 8.34848500680804 0 0 0
77 1 10.224764285417601 1.4758178326822853 8.348485006808081 0 0 0
94 1 8.946668714754905 2.2137265791569867 10.434132352165175 0 0 0
106 1 8.946668714248688 3.6895440055218436 12.519837693025872 0 0 0
109 1 10.224764285751592 1.4758178302604663 12.519837725057984 0 0 0
78 1 11.502859714582605 3.689544019044933 8.348485006808042 0 0 0
110 1 11.502859714248686 3.6895440055218436 12.51983769302587 0 0 0
67 1 5.112382285416762 5.903270267070343 8.34848500680812 0 0 0
68 1 6.3904777145830325 8.116996420667874 8.348485006807795 0 0 0
71 1 7.668573285416761 5.903270267070343 8.34848500680812 0 0 0
84 1 3.8342867147544837 6.641178986256779 10.434132348212335 0 0 0
87 1 5.1123822852448875 4.427452731536592 10.434132345471554 0 0 0
88 1 6.390477714754484 6.6411789862567785 10.434132348212335 0 0 0
91 1 7.668573285244888 4.427452731536592 10.434132345471554 0 0 0
99 1 5.112382285750715 5.903270263872029 12.519837705488253 0 0 0
100 1 6.390477714249056 8.116996415961019 12.519837698248429 0 0 0
103 1 7.668573285750712 5.90327026387203 12.519837705488253 0 0 0
72 1 8.946668714583032 8.116996420667874 8.348485006807794 0 0 0
75 1 10.224764285416763 5.903270267070343 8.34848500680812 0 0 0
92 1 8.946668714754484 6.641178986256779 10.434132348212335 0 0 0
95 1 10.224764285244888 4.427452731536593 10.434132345471554 0 0 0
104 1 8.946668714249057 8.116996415961019 12.519837698248429 0 0 0
107 1 10.224764285750714 5.90327026387203 12.519837705488253 0 0 0
76 1 11.50285971458303 8.116996420667874 8.348485006807794 0 0 0
79 1 12.780955285416763 5.903270267070343 8.34848500680812 0 0 0
80 1 14.05905071458303 8.116996420667874 8.348485006807795 0 0 0
83 1 2.5561912852448896 4.427452731536592 10.434132345471552 0 0 0
96 1 11.502859714754482 6.641178986256779 10.434132348212335 0 0 0
108 1 11.502859714249057 8.11699641596102 12.519837698248429 0 0 0
111 1 12.780955285750712 5.903270263872029 12.519837705488253 0 0 0
112 1 14.059050714249054 8.11699641596102 12.519837698248429 0 0 0
113 1 2.863264731423783e-07 1.5231647976501153e-07 14.60837497363468 0 0 0
114 1 1.2780957136740647 2.2137264826819454 14.608374944146435 0 0 0
117 1 2.5561912863264737 1.5231648016457842e-07 14.60837497363468 0 0 0
118 1 3.834286713674064 2.2137264826819454 14.608374944146435 0 0 0
121 1 5.112382286326474 1.5231647931860638e-07 14.60837497363468 0 0 0
122 1 6.3904777136740645 2.213726482681945 14.608374944146435 0 0 0
125 1 7.668573286326475 1.5231647989668013e-07 14.60837497363468 0 0 0
126 1 8.946668713674065 2.2137264826819445 14.608374944146435 0 0 0
116 1 3.8342867136735204 6.6411789400283405 14.608374935297 0 0 0
119 1 5.112382286325982 4.427452716084693 14.608374971111123 0 0 0
120 1 6.390477713673523 6.6411789400283405 14.608374935297 0 0 0
123 1 7.668573286325984 4.4274527160846935 14.608374971111122 0 0 0
124 1 8.946668713673521 6.6411789400283405 14.608374935297 0 0 0
127 1 10.224764286325982 4.4274527160846935 14.608374971111122 0 0 0
115 1 2.5561912863259804 4.427452716084693 14.608374971111122 0 0 0
128 1 11.50285971367352 6.641178940028342 14.608374935297 0 0 0

Velocities

1 0 0 0
2 0 0 0
17 0 0 0
18 0 0 0
21 0 0 0
33 0 0 0
5 0 0 0
6 0 0 0
9 0 0 0
10 0 0 0
22 0 0 0
25 0 0 0
26 0 0 0
29 0 0 0
34 0 0 0
37 0 0 0
38 0 0 0
41 0 0 0
13 0 0 0
14 0 0 0
30 0 0 0
42 0 0 0
45 0 0 0
46 0 0 0
3 0 0 0
4 0 0 0
7 0 0 0
8 0 0 0
20 0 0 0
23 0 0 0
24 0 0 0
27 0 0 0
35 0 0 0
36 0 0 0
39 0 0 0
11 0 0 0
12 0 0 0
28 0 0 0
31 0 0 0
40 0 0 0
43 0 0 0
15 0 0 0
16 0 0 0
19 0 0 0
32 0 0 0
44 0 0 0
47 0 0 0
48 0 0 0
49 0 0 0
50 0 0 0
53 0 0 0
54 0 0 0
57 0 0 0
58 0 0 0
61 0 0 0
62 0 0 0
52 0 0 0
55 0 0 0
56 0 0 0
59 0 0 0
60 0 0 0
63 0 0 0
51 0 0 0
64 0 0 0
65 0 0 0
81 0 0 0
82 0 0 0
85 0 0 0
97 0 0 0
66 0 0 0
69 0 0 0
70 0 0 0
73 0 0 0
86 0 0 0
89 0 0 0
90 0 0 0
93 0 0 0
98 0 0 0
101 0 0 0
102 0 0 0
105 0 0 0
74 0 0 0
77 0 0 0
94 0 0 0
106 0 0 0
109 0 0 0
78 0 0 0
110 0 0 0
67 0 0 0
68 0 0 0
71 0 0 0
84 0 0 0
87 0 0 0
88 0 0 0
91 0 0 0
99 0 0 0
100 0 0 0
103 0 0 0
72 0 0 0
75 0 0 0
92 0 0 0
95 0 0 0
104 0 0 0
107 0 0 0
76 0 0 0
79 0 0 0
80 0 0 0
83 0 0 0
96 0 0 0
108 0 0 0
111 0 0 0
112 0 0 0
113 0 0 0
114 0 0 0
117 0 0 0
118 0 0 0
121 0 0 0
122 0 0 0
125 0 0 0
126 0 0 0
116 0 0 0
119 0 0 0
120 0 0 0
123 0 0 0
124 0 0 0
127 0 0 0
115 0 0 0
128 0 0 0
