LAMMPS data file via write_data, version 22 Jul 2025, timestep = 4, units = metal

128 atoms
3 atom types

0 10.224764 xlo xhi
0 8.854905 ylo yhi
0 16.69697 zlo zhi
5.112382 0 0 xy xz yz

Masses

1 63.55
2 63.55
3 63.55

Atoms # atomic

1 1 2.609138938686163e-07 2.0968231134022084e-07 16.696258239748193 0 0 -1
2 1 1.2780957390863532 2.213726467510915 16.696258229341737 0 0 -1
5 1 2.556191260913894 2.0968231143962244e-07 16.696258239748193 0 0 -1
17 1 1.2780957390862127 0.7379089471198779 2.087832775178347 0 0 0
18 1 2.5561912609138613 2.9516351996589236 2.0878327819382396 0 0 0
33 1 2.5561912612114472 1.475817726109144 4.176378417074203 0 0 0
6 1 3.8342867390863535 2.2137264675109156 16.696258229341737 0 0 -1
9 1 5.112382260913893 2.096823108748061e-07 16.696258239748193 0 0 -1
10 1 6.390477739086353 2.2137264675109156 16.696258229341737 0 0 -1
13 1 7.6685732609138935 2.0968231153198103e-07 16.696258239748193 0 0 -1
21 1 3.834286739086213 0.7379089471198775 2.087832775178347 0 0 0
22 1 5.1123822609138605 2.9516351996589236 2.0878327819382387 0 0 0
25 1 6.390477739086213 0.7379089471198773 2.0878327751783465 0 0 0
26 1 7.66857326091386 2.951635199658923 2.0878327819382396 0 0 0
34 1 3.8342867387885935 3.689543986290077 4.176378392135836 0 0 0
37 1 5.112382261211447 1.475817726109144 4.176378417074203 0 0 0
38 1 6.390477738788595 3.689543986290077 4.176378392135836 0 0 0
41 1 7.6685732612114474 1.475817726109144 4.176378417074202 0 0 0
14 1 8.946668739086354 2.213726467510916 16.696258229341737 0 0 -1
29 1 8.946668739086213 0.7379089471198775 2.087832775178347 0 0 0
30 1 10.22476426091386 2.951635199658923 2.0878327819382396 0 0 0
42 1 8.946668738788594 3.689543986290077 4.176378392135836 0 0 0
45 1 10.224764261211448 1.475817726109144 4.176378417074204 0 0 0
46 1 11.502859738788592 3.6895439862900767 4.176378392135836 0 0 0
4 1 3.8342867390860724 6.641178943737655 16.696258243817624 0 0 -1
7 1 5.112382260913751 4.427452705362503 16.696258230810415 0 0 -1
8 1 6.390477739086073 6.641178943737655 16.696258243817624 0 0 -1
11 1 7.66857326091375 4.427452705362503 16.696258230810415 0 0 -1
19 1 3.8342867390861395 5.165361464008338 2.0878327542631245 0 0 0
20 1 5.1123822609137175 7.37908771526549 2.0878327449023084 0 0 0
23 1 6.3904777390861405 5.165361464008338 2.0878327542631245 0 0 0
24 1 7.668573260913718 7.37908771526549 2.0878327449023084 0 0 0
35 1 5.112382261211248 5.903270199782878 4.176378415092571 0 0 0
36 1 6.390477738788707 8.116996432132995 4.176378409350676 0 0 0
39 1 7.668573261211249 5.903270199782877 4.176378415092572 0 0 0
12 1 8.946668739086071 6.641178943737655 16.696258243817624 0 0 -1
15 1 10.224764260913751 4.427452705362503 16.696258230810415 0 0 -1
27 1 8.94666873908614 5.165361464008338 2.0878327542631245 0 0 0
28 1 10.224764260913716 7.37908771526549 2.0878327449023084 0 0 0
40 1 8.946668738788707 8.116996432132995 4.176378409350677 0 0 0
43 1 10.22476426121125 5.903270199782878 4.176378415092571 0 0 0
3 1 2.55619126091375 4.427452705362503 16.696258230810415 0 0 -1
16 1 11.50285973908607 6.641178943737656 16.696258243817624 0 0 -1
31 1 11.50285973908614 5.165361464008338 2.0878327542631245 0 0 0
32 1 12.780955260913716 7.3790877152654915 2.087832744902308 0 0 0
44 1 11.502859738788707 8.116996432132995 4.176378409350677 0 0 0
47 1 12.78095526121125 5.903270199782878 4.176378415092571 0 0 0
48 1 14.059050738788708 8.116996432132995 4.176378409350676 0 0 0
49 1 2.61417727546962e-07 1.827992101628999e-07 6.2649681232697345 0 0 0
50 1 1.2780957385825384 2.213726439318727 6.264968096145379 0 0 0
53 1 2.5561912614177276 1.827992101165297e-07 6.2649681232697345 0 0 0
54 1 3.834286738582538 2.213726439318727 6.264968096145379 0 0 0
57 1 5.112382261417728 1.8279921064138766e-07 6.264968123269735 0 0 0
58 1 6.390477738582538 2.213726439318727 6.264968096145379 0 0 0
61 1 7.668573261417728 1.8279921083002147e-07 6.264968123269735 0 0 0
62 1 8.946668738582538 2.213726439318727 6.264968096145379 0 0 0
52 1 3.8342867385822226 6.641178930912504 6.264968131646995 0 0 0
55 1 5.112382261417556 4.427452699895361 6.264968100106688 0 0 0
56 1 6.390477738582223 6.641178930912504 6.264968131646994 0 0 0
59 1 7.6685732614175555 4.427452699895361 6.264968100106688 0 0 0
60 1 8.946668738582222 6.641178930912504 6.264968131646995 0 0 0
63 1 10.224764261417558 4.427452699895361 6.264968100106687 0 0 0
51 1 2.5561912614175575 4.427452699895361 6.264968100106687 0 0 0
64 1 11.502859738582224 6.641178930912504 6.264968131646994 0 0 0
65 1 1.2780957391166312 0.7379088649968366 8.350654813581405 0 0 0
66 1 2.5561912608834954 2.951635098573319 8.350654799262339 0 0 0
81 1 2.608833966363563e-07 1.538773337405378e-07 10.433436196338922 0 0 0
82 1 1.278095739116829 2.2137264235190783 10.433436200308401 0 0 0
85 1 2.5561912608833968 1.538773336054757e-07 10.433436196338924 0 0 0
97 1 1.278095738582351 0.7379089360809673 12.51912288957192 0 0 0
98 1 2.556191261417715 2.9516351892887522 12.519122888484691 0 0 0
69 1 3.834286739116631 0.7379088649968365 8.350654813581405 0 0 0
70 1 5.112382260883495 2.9516350985733184 8.350654799262339 0 0 0
73 1 6.39047773911663 0.7379088649968363 8.350654813581405 0 0 0
74 1 7.668573260883495 2.951635098573319 8.350654799262339 0 0 0
86 1 3.8342867391168287 2.2137264235190783 10.433436200308401 0 0 0
89 1 5.112382260883398 1.538773335309999e-07 10.433436196338922 0 0 0
90 1 6.390477739116829 2.2137264235190783 10.433436200308401 0 0 0
93 1 7.668573260883396 1.5387733347847482e-07 10.433436196338924 0 0 0
101 1 3.8342867385823514 0.7379089360809677 12.51912288957192 0 0 0
102 1 5.112382261417714 2.9516351892887522 12.519122888484693 0 0 0
105 1 6.39047773858235 0.7379089360809671 12.51912288957192 0 0 0
106 1 7.668573261417715 2.951635189288752 12.519122888484693 0 0 0
77 1 8.946668739116632 0.7379088649968364 8.350654813581405 0 0 0
78 1 10.224764260883498 2.951635098573319 8.350654799262339 0 0 0
94 1 8.946668739116829 2.2137264235190783 10.433436200308401 0 0 0
109 1 8.946668738582352 0.7379089360809671 12.51912288957192 0 0 0
110 1 10.224764261417715 2.951635189288752 12.519122888484693 0 0 0
67 1 3.834286739116618 5.165361348571899 8.350654794333852 0 0 0
68 1 5.112382260883157 7.379087600550497 8.350654817638127 0 0 0
71 1 6.390477739116619 5.165361348571899 8.350654794333852 0 0 0
72 1 7.668573260883155 7.379087600550497 8.350654817638125 0 0 0
84 1 3.834286739116495 6.641178929394287 10.433436182791025 0 0 0
87 1 5.112382260883377 4.427452684591109 10.433436195745765 0 0 0
88 1 6.390477739116496 6.641178929394287 10.433436182791027 0 0 0
91 1 7.668573260883378 4.42745268459111 10.433436195745765 0 0 0
99 1 3.8342867385823425 5.1653614571806274 12.519122887051724 0 0 0
100 1 5.112382261417546 7.379087716436176 12.519122883722925 0 0 0
103 1 6.390477738582342 5.165361457180627 12.519122887051724 0 0 0
104 1 7.668573261417546 7.379087716436176 12.519122883722925 0 0 0
75 1 8.94666873911662 5.165361348571899 8.350654794333852 0 0 0
76 1 10.224764260883155 7.379087600550497 8.350654817638127 0 0 0
92 1 8.946668739116493 6.641178929394287 10.433436182791025 0 0 0
95 1 10.224764260883378 4.427452684591109 10.433436195745765 0 0 0
107 1 8.946668738582343 5.1653614571806274 12.519122887051724 0 0 0
108 1 10.224764261417544 7.379087716436177 12.519122883722925 0 0 0
79 1 11.502859739116618 5.165361348571899 8.350654794333852 0 0 0
80 1 12.780955260883156 7.379087600550497 8.350654817638127 0 0 0
83 1 2.5561912608833772 4.427452684591109 10.433436195745765 0 0 0
96 1 11.502859739116495 6.641178929394287 10.433436182791027 0 0 0
111 1 11.502859738582341 5.165361457180627 12.519122887051726 0 0 0
112 1 12.780955261417546 7.379087716436176 12.519122883722925 0 0 0
113 1 2.556191261211436 1.4758177166066009 14.607712586753399 0 0 0
114 1 3.8342867387886015 3.6895439849209786 14.607712558907824 0 0 0
117 1 5.112382261211436 1.4758177166066007 14.607712586753399 0 0 0
118 1 6.3904777387886025 3.6895439849209786 14.607712558907826 0 0 0
121 1 7.668573261211436 1.4758177166066002 14.607712586753397 0 0 0
122 1 8.946668738788603 3.6895439849209786 14.607712558907826 0 0 0
125 1 10.224764261211435 1.4758177166066 14.607712586753397 0 0 0
126 1 11.502859738788603 3.6895439849209786 14.607712558907824 0 0 0
115 1 5.112382261211259 5.903270210803957 14.607712611760126 0 0 0
116 1 6.3904777387887055 8.116996435020658 14.60771260892548 0 0 0
119 1 7.668573261211257 5.903270210803957 14.607712611760126 0 0 0
120 1 8.946668738788706 8.116996435020658 14.60771260892548 0 0 0
123 1 10.22476426121126 5.903270210803957 14.607712611760126 0 0 0
124 1 11.502859738788707 8.116996435020656 14.60771260892548 0 0 0
127 1 12.78095526121126 5.9032702108039565 14.607712611760126 0 0 0
128 1 14.059050738788706 8.116996435020658 14.60771260892548 0 0 0

Velocities

1 0 0 0
2 0 0 0
5 0 0 0
17 0 0 0
18 0 0 0
33 0 0 0
6 0 0 0
9 0 0 0
10 0 0 0
13 0 0 0
21 0 0 0
22 0 0 0
25 0 0 0
26 0 0 0
34 0 0 0
37 0 0 0
38 0 0 0
41 0 0 0
14 0 0 0
29 0 0 0
30 0 0 0
42 0 0 0
45 0 0 0
46 0 0 0
4 0 0 0
7 0 0 0
8 0 0 0
11 0 0 0
19 0 0 0
20 0 0 0
23 0 0 0
24 0 0 0
35 0 0 0
36 0 0 0
39 0 0 0
12 0 0 0
15 0 0 0
27 0 0 0
28 0 0 0
40 0 0 0
43 0 0 0
3 0 0 0
16 0 0 0
31 0 0 0
32 0 0 0
44 0 0 0
47 0 0 0
48 0 0 0
49 0 0 0
50 0 0 0
53 0 0 0
54 0 0 0
57 0 0 0
58 0 0 0
61 0 0 0
62 0 0 0
52 0 0 0
55 0 0 0
56 0 0 0
59 0 0 0
60 0 0 0
63 0 0 0
51 0 0 0
64 0 0 0
65 0 0 0
66 0 0 0
81 0 0 0
82 0 0 0
85 0 0 0
97 0 0 0
98 0 0 0
69 0 0 0
70 0 0 0
73 0 0 0
74 0 0 0
86 0 0 0
89 0 0 0
90 0 0 0
93 0 0 0
101 0 0 0
102 0 0 0
105 0 0 0
106 0 0 0
77 0 0 0
78 0 0 0
94 0 0 0
109 0 0 0
110 0 0 0
67 0 0 0
68 0 0 0
71 0 0 0
72 0 0 0
84 0 0 0
87 0 0 0
88 0 0 0
91 0 0 0
99 0 0 0
100 0 0 0
103 0 0 0
104 0 0 0
75 0 0 0
76 0 0 0
92 0 0 0
95 0 0 0
107 0 0 0
108 0 0 0
79 0 0 0
80 0 0 0
83 0 0 0
96 0 0 0
111 0 0 0
112 0 0 0
113 0 0 0
114 0 0 0
117 0 0 0
118 0 0 0
121 0 0 0
122 0 0 0
125 0 0 0
126 0 0 0
115 0 0 0
116 0 0 0
119 0 0 0
120 0 0 0
123 0 0 0
124 0 0 0
127 0 0 0
128 0 0 0
