LAMMPS data file via write_data, version 22 Jul 2025, timestep = 5, units = metal

128 atoms
3 atom types

0 10.224764 xlo xhi
0 8.854905 ylo yhi
0 16.69697 zlo zhi
5.112382 0 0 xy xz yz

Masses

1 63.55
2 63.55
3 63.55

Atoms # atomic

1 1 1.2780957512289182 0.7379088445134627 16.69696991864103 0 0 -1
2 1 2.5561912487711416 2.9516351137763337 16.696969918641123 0 0 -1
17 1 2.486994265527148e-07 1.8710961999002503e-07 2.0842319444117328 0 0 0
18 1 1.2780957513006297 2.2137264287147174 2.0842319613656506 0 0 0
21 1 2.556191248699427 1.8710961953726554e-07 2.0842319444117323 0 0 0
33 1 1.2780957511539532 0.7379089618144133 4.171360025703452 0 0 0
34 1 2.5561912488460687 2.951635185144147 4.171360019529456 0 0 0
5 1 3.8342867512289183 0.7379088445134628 16.69696991864103 0 0 -1
6 1 5.112382248771143 2.9516351137763337 16.696969918641123 0 0 -1
9 1 6.390477751228919 0.7379088445134625 16.69696991864103 0 0 -1
10 1 7.668573248771141 2.9516351137763337 16.696969918641123 0 0 -1
22 1 3.8342867513006293 2.2137264287147174 2.0842319613656506 0 0 0
25 1 5.112382248699426 1.871096197681932e-07 2.0842319444117323 0 0 0
26 1 6.3904777513006294 2.2137264287147174 2.084231961365651 0 0 0
29 1 7.668573248699426 1.8710961993370867e-07 2.0842319444117323 0 0 0
37 1 3.834286751153954 0.7379089618144137 4.171360025703451 0 0 0
38 1 5.1123822488460675 2.951635185144147 4.171360019529456 0 0 0
41 1 6.390477751153953 0.7379089618144139 4.171360025703451 0 0 0
42 1 7.668573248846068 2.951635185144147 4.171360019529456 0 0 0
13 1 8.946668751228918 0.7379088445134628 16.69696991864103 0 0 -1
14 1 10.22476424877114 2.9516351137763337 16.696969918641123 0 0 -1
30 1 8.94666875130063 2.2137264287147174 2.084231961365651 0 0 0
45 1 8.946668751153954 0.7379089618144138 4.171360025703452 0 0 0
46 1 10.224764248846068 2.9516351851441467 4.171360019529456 0 0 0
3 1 3.834286751228941 5.165361337387757 16.696969918641017 0 0 -1
4 1 5.112382248771011 7.3790876095916635 16.69696991864108 0 0 -1
7 1 6.390477751228941 5.165361337387756 16.696969918641017 0 0 -1
8 1 7.668573248771011 7.379087609591663 16.69696991864108 0 0 -1
20 1 3.834286751300525 6.641178926029961 2.0842319609047033 0 0 0
23 1 5.112382248699421 4.427452677043981 2.084231952165226 0 0 0
24 1 6.390477751300525 6.641178926029961 2.0842319609047033 0 0 0
27 1 7.6685732486994205 4.427452677043981 2.084231952165226 0 0 0
35 1 3.834286751153926 5.16536147857545 4.171360023215972 0 0 0
36 1 5.112382248846038 7.379087672808717 4.1713600230883 0 0 0
39 1 6.3904777511539255 5.165361478575451 4.171360023215972 0 0 0
40 1 7.668573248846037 7.379087672808717 4.1713600230883 0 0 0
11 1 8.946668751228941 5.165361337387757 16.696969918641017 0 0 -1
12 1 10.224764248771013 7.3790876095916635 16.69696991864108 0 0 -1
28 1 8.946668751300525 6.641178926029962 2.084231960904703 0 0 0
31 1 10.22476424869942 4.427452677043981 2.084231952165226 0 0 0
43 1 8.946668751153926 5.165361478575451 4.171360023215972 0 0 0
44 1 10.224764248846036 7.3790876728087165 4.1713600230883 0 0 0
15 1 11.502859751228943 5.165361337387757 16.696969918641017 0 0 -1
16 1 12.780955248771011 7.3790876095916635 16.69696991864108 0 0 -1
19 1 2.5561912486994207 4.427452677043981 2.0842319521652257 0 0 0
32 1 11.502859751300525 6.641178926029962 2.0842319609047033 0 0 0
47 1 11.502859751153926 5.165361478575451 4.171360023215971 0 0 0
48 1 12.780955248846038 7.379087672808717 4.1713600230883 0 0 0
49 1 2.5561912488484677 1.4758177211217958 6.261332068696263 0 0 0
50 1 3.8342867511515246 3.689543953654654 6.261332085383578 0 0 0
53 1 5.112382248848468 1.4758177211217955 6.261332068696264 0 0 0
54 1 6.390477751151526 3.689543953654654 6.261332085383577 0 0 0
57 1 7.668573248848467 1.4758177211217955 6.261332068696264 0 0 0
58 1 8.946668751151526 3.689543953654654 6.261332085383577 0 0 0
61 1 10.224764248848468 1.4758177211217955 6.261332068696263 0 0 0
62 1 11.502859751151526 3.6895439536546535 6.261332085383577 0 0 0
51 1 5.112382248848434 5.903270227808592 6.261332061169251 0 0 0
52 1 6.390477751151561 8.116996459370114 6.2613320897621225 0 0 0
55 1 7.668573248848433 5.903270227808591 6.261332061169251 0 0 0
56 1 8.946668751151563 8.116996459370112 6.261332089762122 0 0 0
59 1 10.224764248848434 5.903270227808591 6.2613320611692505 0 0 0
60 1 11.502859751151563 8.116996459370112 6.2613320897621225 0 0 0
63 1 12.780955248848432 5.903270227808591 6.261332061169251 0 0 0
64 1 14.05905075115156 8.116996459370112 6.2613320897621225 0 0 0
65 1 2.486325551313033e-07 1.8392785145683938e-07 8.348484914121503 0 0 0
66 1 1.2780957513675262 2.213726492493678 8.348484914121377 0 0 0
69 1 2.5561912486325564 1.8392785104082624e-07 8.348484914121503 0 0 0
81 1 2.5561912488484544 1.4758177211218593 10.435637601124137 0 0 0
97 1 1.2780957511539532 0.7379089618145576 12.525609806795135 0 0 0
98 1 2.5561912488460687 2.9516351851441076 12.52560981296914 0 0 0
70 1 3.834286751367527 2.213726492493678 8.348484914121379 0 0 0
73 1 5.112382248632556 1.8392785160153624e-07 8.348484914121503 0 0 0
74 1 6.390477751367525 2.2137264924936786 8.348484914121379 0 0 0
77 1 7.668573248632556 1.8392785125761874e-07 8.348484914121503 0 0 0
82 1 3.834286751151539 3.6895439536545998 10.435637584437028 0 0 0
85 1 5.112382248848455 1.4758177211218597 10.435637601124137 0 0 0
86 1 6.39047775115154 3.6895439536546 10.435637584437028 0 0 0
89 1 7.668573248848455 1.47581772112186 10.435637601124137 0 0 0
101 1 3.8342867511539533 0.7379089618145572 12.525609806795135 0 0 0
102 1 5.112382248846069 2.9516351851441076 12.52560981296914 0 0 0
105 1 6.390477751153954 0.7379089618145576 12.525609806795135 0 0 0
106 1 7.668573248846069 2.9516351851441076 12.52560981296914 0 0 0
78 1 8.946668751367525 2.2137264924936786 8.348484914121377 0 0 0
90 1 8.94666875115154 3.6895439536545998 10.435637584437028 0 0 0
93 1 10.224764248848453 1.4758177211218597 10.435637601124137 0 0 0
109 1 8.946668751153954 0.7379089618145573 12.525609806795135 0 0 0
110 1 10.22476424884607 2.9516351851441076 12.52560981296914 0 0 0
94 1 11.50285975115154 3.6895439536545998 10.435637584437028 0 0 0
68 1 3.8342867513674466 6.641178988225823 8.34848491412143 0 0 0
71 1 5.1123822486325 4.427452671691072 8.348484914121448 0 0 0
72 1 6.390477751367447 6.641178988225823 8.34848491412143 0 0 0
75 1 7.6685732486325 4.427452671691073 8.348484914121448 0 0 0
83 1 5.11238224884842 5.903270227808587 10.43563760865125 0 0 0
84 1 6.390477751151575 8.116996459370027 10.435637580058634 0 0 0
87 1 7.668573248848421 5.903270227808586 10.435637608651252 0 0 0
99 1 3.8342867511539263 5.165361478575442 12.52560980928273 0 0 0
100 1 5.112382248846036 7.379087672808667 12.525609809410385 0 0 0
103 1 6.3904777511539255 5.165361478575442 12.52560980928273 0 0 0
104 1 7.668573248846037 7.379087672808668 12.525609809410385 0 0 0
76 1 8.946668751367447 6.641178988225823 8.34848491412143 0 0 0
79 1 10.224764248632498 4.427452671691073 8.348484914121448 0 0 0
88 1 8.946668751151575 8.116996459370027 10.435637580058634 0 0 0
91 1 10.224764248848418 5.903270227808587 10.435637608651252 0 0 0
107 1 8.946668751153926 5.165361478575442 12.52560980928273 0 0 0
108 1 10.224764248846038 7.379087672808667 12.525609809410385 0 0 0
67 1 2.556191248632498 4.427452671691073 8.348484914121448 0 0 0
80 1 11.502859751367446 6.641178988225823 8.34848491412143 0 0 0
92 1 11.502859751151576 8.116996459370027 10.435637580058634 0 0 0
95 1 12.780955248848418 5.903270227808586 10.435637608651252 0 0 0
96 1 14.059050751151574 8.116996459370025 10.435637580058634 0 0 0
111 1 11.502859751153927 5.165361478575442 12.52560980928273 0 0 0
112 1 12.780955248846038 7.379087672808667 12.525609809410385 0 0 0
113 1 2.486994392437337e-07 1.871096965270753e-07 14.61273772050644 0 0 0
114 1 1.2780957513006164 2.2137264287147644 14.612737703552746 0 0 0
117 1 2.55619124869944 1.8710969597745912e-07 14.61273772050644 0 0 0
118 1 3.834286751300617 2.213726428714765 14.612737703552746 0 0 0
121 1 5.11238224869944 1.871096963577645e-07 14.61273772050644 0 0 0
122 1 6.390477751300615 2.2137264287147653 14.612737703552746 0 0 0
125 1 7.66857324869944 1.871096961988661e-07 14.61273772050644 0 0 0
126 1 8.946668751300617 2.2137264287147644 14.612737703552746 0 0 0
116 1 3.8342867513005117 6.641178926029913 14.612737704013638 0 0 0
119 1 5.112382248699435 4.42745267704397 14.612737712753017 0 0 0
120 1 6.390477751300512 6.641178926029913 14.61273770401364 0 0 0
123 1 7.668573248699435 4.42745267704397 14.612737712753017 0 0 0
124 1 8.946668751300512 6.641178926029913 14.612737704013638 0 0 0
127 1 10.224764248699435 4.42745267704397 14.612737712753017 0 0 0
115 1 2.5561912486994345 4.427452677043969 14.612737712753017 0 0 0
128 1 11.502859751300512 6.641178926029913 14.61273770401364 0 0 0

Velocities

1 0 0 0
2 0 0 0
17 0 0 0
18 0 0 0
21 0 0 0
33 0 0 0
34 0 0 0
5 0 0 0
6 0 0 0
9 0 0 0
10 0 0 0
22 0 0 0
25 0 0 0
26 0 0 0
29 0 0 0
37 0 0 0
38 0 0 0
41 0 0 0
42 0 0 0
13 0 0 0
14 0 0 0
30 0 0 0
45 0 0 0
46 0 0 0
3 0 0 0
4 0 0 0
7 0 0 0
8 0 0 0
20 0 0 0
23 0 0 0
24 0 0 0
27 0 0 0
35 0 0 0
36 0 0 0
39 0 0 0
40 0 0 0
11 0 0 0
12 0 0 0
28 0 0 0
31 0 0 0
43 0 0 0
44 0 0 0
15 0 0 0
16 0 0 0
19 0 0 0
32 0 0 0
47 0 0 0
48 0 0 0
49 0 0 0
50 0 0 0
53 0 0 0
54 0 0 0
57 0 0 0
58 0 0 0
61 0 0 0
62 0 0 0
51 0 0 0
52 0 0 0
55 0 0 0
56 0 0 0
59 0 0 0
60 0 0 0
63 0 0 0
64 0 0 0
65 0 0 0
66 0 0 0
69 0 0 0
81 0 0 0
97 0 0 0
98 0 0 0
70 0 0 0
73 0 0 0
74 0 0 0
77 0 0 0
82 0 0 0
85 0 0 0
86 0 0 0
89 0 0 0
101 0 0 0
102 0 0 0
105 0 0 0
106 0 0 0
78 0 0 0
90 0 0 0
93 0 0 0
109 0 0 0
110 0 0 0
94 0 0 0
68 0 0 0
71 0 0 0
72 0 0 0
75 0 0 0
83 0 0 0
84 0 0 0
87 0 0 0
99 0 0 0
100 0 0 0
103 0 0 0
104 0 0 0
76 0 0 0
79 0 0 0
88 0 0 0
91 0 0 0
107 0 0 0
108 0 0 0
67 0 0 0
80 0 0 0
92 0 0 0
95 0 0 0
96 0 0 0
111 0 0 0
112 0 0 0
113 0 0 0
114 0 0 0
117 0 0 0
118 0 0 0
121 0 0 0
122 0 0 0
125 0 0 0
126 0 0 0
116 0 0 0
119 0 0 0
120 0 0 0
123 0 0 0
124 0 0 0
127 0 0 0
115 0 0 0
128 0 0 0
