LAMMPS data file via write_data, version 22 Jul 2025, timestep = 4, units = metal

128 atoms
3 atom types

0 10.224764 xlo xhi
0 8.854905 ylo yhi
0 16.69697 zlo zhi
5.112382 0 0 xy xz yz

Masses

1 63.55
2 63.55
3 63.55

Atoms # atomic

1 1 1.278095738912973 0.7379089464433661 16.69483378808238 0 0 -1
2 1 2.5561912610871005 2.9516351962849376 16.694833783251756 0 0 -1
17 1 2.556191260791736 1.4758177186636128 2.086409401814608 0 0 0
33 1 2.607917178220278e-07 2.1092173002940016e-07 4.17495409867638 0 0 0
34 1 1.2780957392085286 2.2137264676220942 4.174954086675708 0 0 0
37 1 2.5561912607917177 2.1092173030845678e-07 4.17495409867638 0 0 0
5 1 3.834286738912973 0.7379089464433661 16.69483378808238 0 0 -1
6 1 5.112382261087101 2.9516351962849376 16.694833783251756 0 0 -1
9 1 6.390477738912973 0.7379089464433662 16.694833788082377 0 0 -1
10 1 7.668573261087101 2.9516351962849376 16.694833783251756 0 0 -1
18 1 3.834286739208304 3.6895439854217273 2.086409369260581 0 0 0
21 1 5.112382260791736 1.4758177186636126 2.0864094018146084 0 0 0
22 1 6.390477739208304 3.6895439854217273 2.0864093692605805 0 0 0
25 1 7.668573260791735 1.4758177186636123 2.086409401814608 0 0 0
38 1 3.8342867392085287 2.2137264676220942 4.174954086675708 0 0 0
41 1 5.112382260791717 2.109217302211418e-07 4.17495409867638 0 0 0
42 1 6.390477739208529 2.213726467622094 4.174954086675708 0 0 0
45 1 7.668573260791719 2.1092172999540875e-07 4.17495409867638 0 0 0
13 1 8.946668738912974 0.7379089464433661 16.69483378808238 0 0 -1
14 1 10.2247642610871 2.951635196284938 16.694833783251756 0 0 -1
26 1 8.946668739208302 3.6895439854217273 2.0864093692605805 0 0 0
29 1 10.224764260791737 1.4758177186636126 2.0864094018146084 0 0 0
46 1 8.946668739208528 2.2137264676220942 4.174954086675708 0 0 0
30 1 11.502859739208304 3.6895439854217273 2.0864093692605805 0 0 0
3 1 3.8342867389129016 5.165361465240009 16.694833778044966 0 0 -1
4 1 5.112382261086944 7.379087719608095 16.694833774292665 0 0 -1
7 1 6.390477738912901 5.165361465240008 16.694833778044966 0 0 -1
8 1 7.668573261086945 7.379087719608096 16.694833774292665 0 0 -1
19 1 5.112382260791552 5.90327020993452 2.0864094210244413 0 0 0
20 1 6.390477739208407 8.116996433718693 2.0864094239083526 0 0 0
23 1 7.668573260791552 5.90327020993452 2.0864094210244413 0 0 0
36 1 3.8342867392082476 6.641178941391602 4.174954101241793 0 0 0
39 1 5.112382260791575 4.427452706122557 4.17495408999173 0 0 0
40 1 6.390477739208247 6.641178941391602 4.174954101241794 0 0 0
43 1 7.668573260791575 4.427452706122557 4.17495408999173 0 0 0
11 1 8.946668738912901 5.165361465240009 16.694833778044966 0 0 -1
12 1 10.224764261086943 7.379087719608095 16.694833774292665 0 0 -1
24 1 8.946668739208409 8.116996433718693 2.0864094239083526 0 0 0
27 1 10.224764260791552 5.90327020993452 2.086409421024441 0 0 0
44 1 8.946668739208246 6.641178941391602 4.174954101241793 0 0 0
47 1 10.224764260791575 4.427452706122557 4.17495408999173 0 0 0
15 1 11.502859738912901 5.165361465240009 16.694833778044966 0 0 -1
16 1 12.780955261086946 7.379087719608096 16.694833774292665 0 0 -1
28 1 11.502859739208407 8.116996433718693 2.086409423908353 0 0 0
31 1 12.780955260791552 5.903270209934521 2.0864094210244413 0 0 0
32 1 14.05905073920841 8.116996433718693 2.0864094239083526 0 0 0
35 1 2.5561912607915733 4.427452706122557 4.17495408999173 0 0 0
48 1 11.502859739208247 6.641178941391602 4.174954101241793 0 0 0
49 1 1.27809573891299 0.737908944938487 6.263499726155624 0 0 0
50 1 2.556191261087076 2.951635204254397 6.263499741459823 0 0 0
53 1 3.83428673891299 0.7379089449384868 6.263499726155624 0 0 0
54 1 5.112382261087076 2.951635204254397 6.263499741459824 0 0 0
57 1 6.390477738912989 0.7379089449384866 6.263499726155624 0 0 0
58 1 7.668573261087077 2.951635204254397 6.263499741459823 0 0 0
61 1 8.94666873891299 0.7379089449384865 6.263499726155624 0 0 0
62 1 10.224764261087076 2.951635204254397 6.263499741459823 0 0 0
51 1 3.834286738912923 5.165361462173171 6.26349971408756 0 0 0
52 1 5.112382261086935 7.379087715306376 6.263499702874621 0 0 0
55 1 6.390477738912923 5.165361462173171 6.26349971408756 0 0 0
56 1 7.668573261086937 7.379087715306377 6.263499702874621 0 0 0
59 1 8.946668738912923 5.165361462173171 6.26349971408756 0 0 0
60 1 10.224764261086936 7.379087715306376 6.263499702874621 0 0 0
63 1 11.502859738912923 5.165361462173171 6.26349971408756 0 0 0
64 1 12.780955261086937 7.379087715306376 6.263499702874621 0 0 0
65 1 2.556191261292552 1.4758177338853178 8.352089529376764 0 0 0
81 1 2.6076000587982687e-07 2.2219544190900124e-07 10.437776126666646 0 0 0
82 1 1.2780957392403078 2.2137264941388186 10.43777610254095 0 0 0
85 1 2.5561912607600057 2.221954423449925e-07 10.437776126666646 0 0 0
97 1 2.556191260759999 1.4758177627687572 12.520557380080264 0 0 0
66 1 3.8342867387074246 3.6895439954762295 8.352089508066012 0 0 0
69 1 5.112382261292552 1.4758177338853178 8.352089529376764 0 0 0
70 1 6.3904777387074265 3.6895439954762295 8.352089508066012 0 0 0
73 1 7.668573261292552 1.4758177338853178 8.352089529376764 0 0 0
86 1 3.8342867392403073 2.2137264941388186 10.43777610254095 0 0 0
89 1 5.112382260760006 2.2219544232439308e-07 10.437776126666646 0 0 0
90 1 6.390477739240307 2.2137264941388186 10.43777610254095 0 0 0
93 1 7.668573260760007 2.2219544247304704e-07 10.437776126666645 0 0 0
98 1 3.834286739240032 3.6895440317747528 12.520557371949241 0 0 0
101 1 5.112382260759999 1.4758177627687568 12.520557380080264 0 0 0
102 1 6.3904777392400325 3.6895440317747528 12.520557371949241 0 0 0
105 1 7.66857326076 1.4758177627687572 12.520557380080264 0 0 0
74 1 8.946668738707425 3.6895439954762295 8.352089508066012 0 0 0
77 1 10.22476426129255 1.4758177338853178 8.352089529376766 0 0 0
94 1 8.946668739240309 2.213726494138818 10.43777610254095 0 0 0
106 1 8.946668739240032 3.6895440317747528 12.520557371949241 0 0 0
109 1 10.22476426076 1.4758177627687572 12.520557380080264 0 0 0
78 1 11.502859738707425 3.6895439954762295 8.352089508066012 0 0 0
110 1 11.502859739240035 3.689544031774753 12.520557371949241 0 0 0
67 1 5.112382261292389 5.90327020899 8.352089534513418 0 0 0
68 1 6.390477738707595 8.116996435162541 8.352089523396856 0 0 0
71 1 7.668573261292389 5.90327020899 8.352089534513418 0 0 0
84 1 3.83428673924 6.641178955307022 10.43777613450463 0 0 0
87 1 5.112382260759708 4.427452742511549 10.437776102073261 0 0 0
88 1 6.39047773924 6.641178955307022 10.43777613450463 0 0 0
91 1 7.668573260759709 4.427452742511549 10.437776102073261 0 0 0
99 1 5.112382260759683 5.903270251238144 12.520557376975864 0 0 0
100 1 6.390477739240327 8.11699648788993 12.520557395862843 0 0 0
103 1 7.6685732607596835 5.903270251238144 12.520557376975864 0 0 0
72 1 8.946668738707595 8.116996435162541 8.35208952339686 0 0 0
75 1 10.224764261292387 5.90327020899 8.352089534513418 0 0 0
92 1 8.94666873924 6.641178955307022 10.43777613450463 0 0 0
95 1 10.224764260759708 4.42745274251155 10.437776102073261 0 0 0
104 1 8.946668739240328 8.11699648788993 12.520557395862843 0 0 0
107 1 10.224764260759684 5.903270251238144 12.520557376975864 0 0 0
76 1 11.502859738707595 8.116996435162541 8.35208952339686 0 0 0
79 1 12.780955261292387 5.90327020899 8.352089534513418 0 0 0
80 1 14.059050738707596 8.116996435162541 8.35208952339686 0 0 0
83 1 2.5561912607597077 4.42745274251155 10.437776102073261 0 0 0
96 1 11.50285973924 6.641178955307022 10.43777613450463 0 0 0
108 1 11.50285973924033 8.11699648788993 12.520557395862845 0 0 0
111 1 12.780955260759683 5.903270251238144 12.520557376975864 0 0 0
112 1 14.059050739240329 8.11699648788993 12.520557395862843 0 0 0
113 1 2.6129254585515456e-07 1.968578231193271e-07 14.606243976799465 0 0 0
114 1 1.2780957387077216 2.2137264771738705 14.606243987447003 0 0 0
117 1 2.556191261292546 1.9685782318306504e-07 14.606243976799465 0 0 0
118 1 3.8342867387077213 2.21372647717387 14.606243987447003 0 0 0
121 1 5.112382261292546 1.9685782318010617e-07 14.606243976799465 0 0 0
122 1 6.390477738707723 2.21372647717387 14.606243987447003 0 0 0
125 1 7.668573261292546 1.9685782353944788e-07 14.606243976799465 0 0 0
126 1 8.94666873870772 2.21372647717387 14.606243987447003 0 0 0
116 1 3.8342867387073887 6.641178953380215 14.606243970246839 0 0 0
119 1 5.1123822612924 4.427452723204202 14.606243978656956 0 0 0
120 1 6.390477738707389 6.641178953380215 14.606243970246839 0 0 0
123 1 7.668573261292399 4.427452723204202 14.606243978656956 0 0 0
124 1 8.946668738707388 6.641178953380214 14.606243970246839 0 0 0
127 1 10.2247642612924 4.427452723204202 14.606243978656956 0 0 0
115 1 2.556191261292399 4.427452723204203 14.606243978656957 0 0 0
128 1 11.502859738707386 6.641178953380215 14.606243970246839 0 0 0

Velocities

1 0 0 0
2 0 0 0
17 0 0 0
33 0 0 0
34 0 0 0
37 0 0 0
5 0 0 0
6 0 0 0
9 0 0 0
10 0 0 0
18 0 0 0
21 0 0 0
22 0 0 0
25 0 0 0
38 0 0 0
41 0 0 0
42 0 0 0
45 0 0 0
13 0 0 0
14 0 0 0
26 0 0 0
29 0 0 0
46 0 0 0
30 0 0 0
3 0 0 0
4 0 0 0
7 0 0 0
8 0 0 0
19 0 0 0
20 0 0 0
23 0 0 0
36 0 0 0
39 0 0 0
40 0 0 0
43 0 0 0
11 0 0 0
12 0 0 0
24 0 0 0
27 0 0 0
44 0 0 0
47 0 0 0
15 0 0 0
16 0 0 0
28 0 0 0
31 0 0 0
32 0 0 0
35 0 0 0
48 0 0 0
49 0 0 0
50 0 0 0
53 0 0 0
54 0 0 0
57 0 0 0
58 0 0 0
61 0 0 0
62 0 0 0
51 0 0 0
52 0 0 0
55 0 0 0
56 0 0 0
59 0 0 0
60 0 0 0
63 0 0 0
64 0 0 0
65 0 0 0
81 0 0 0
82 0 0 0
85 0 0 0
97 0 0 0
66 0 0 0
69 0 0 0
70 0 0 0
73 0 0 0
86 0 0 0
89 0 0 0
90 0 0 0
93 0 0 0
98 0 0 0
101 0 0 0
102 0 0 0
105 0 0 0
74 0 0 0
77 0 0 0
94 0 0 0
106 0 0 0
109 0 0 0
78 0 0 0
110 0 0 0
67 0 0 0
68 0 0 0
71 0 0 0
84 0 0 0
87 0 0 0
88 0 0 0
91 0 0 0
99 0 0 0
100 0 0 0
103 0 0 0
72 0 0 0
75 0 0 0
92 0 0 0
95 0 0 0
104 0 0 0
107 0 0 0
76 0 0 0
79 0 0 0
80 0 0 0
83 0 0 0
96 0 0 0
108 0 0 0
111 0 0 0
112 0 0 0
113 0 0 0
114 0 0 0
117 0 0 0
118 0 0 0
121 0 0 0
122 0 0 0
125 0 0 0
126 0 0 0
116 0 0 0
119 0 0 0
120 0 0 0
123 0 0 0
124 0 0 0
127 0 0 0
115 0 0 0
128 0 0 0
