LAMMPS data file via write_data, version 22 Jul 2025, timestep = 4, units = metal

128 atoms
3 atom types

0 10.224764 xlo xhi
0 8.854905 ylo yhi
0 16.69697 zlo zhi
5.112382 0 0 xy xz yz

Masses

1 63.55
2 63.55
3 63.55

Atoms # atomic

1 1 2.5561912598373633 1.4758176923721906 16.695535511319246 0 0 -1
17 1 1.2780957396679944 0.7379089357650666 2.0856735548853425 0 0 0
18 1 2.5561912603320778 2.9516351798390312 2.0856735361943195 0 0 0
33 1 2.599775535132163e-07 1.7507179272844916e-07 4.172840298463727 0 0 0
34 1 1.278095740022602 2.2137264432224377 4.172840309946399 0 0 0
37 1 2.5561912599775543 1.7507179293263974e-07 4.172840298463728 0 0 0
2 1 3.8342867401626277 3.6895439693359666 16.69553549398851 0 0 -1
5 1 5.112382259837363 1.475817692372191 16.695535511319246 0 0 -1
6 1 6.390477740162627 3.689543969335966 16.69553549398851 0 0 -1
9 1 7.6685732598373635 1.4758176923721906 16.695535511319246 0 0 -1
21 1 3.8342867396679954 0.7379089357650668 2.0856735548853425 0 0 0
22 1 5.112382260332078 2.9516351798390317 2.0856735361943195 0 0 0
25 1 6.390477739667995 0.7379089357650672 2.0856735548853425 0 0 0
26 1 7.668573260332078 2.9516351798390312 2.0856735361943195 0 0 0
38 1 3.834286740022602 2.213726443222438 4.172840309946399 0 0 0
41 1 5.112382259977553 1.7507179239767456e-07 4.172840298463728 0 0 0
42 1 6.390477740022604 2.2137264432224377 4.172840309946399 0 0 0
45 1 7.6685732599775545 1.7507179252484237e-07 4.172840298463728 0 0 0
10 1 8.946668740162627 3.6895439693359657 16.69553549398851 0 0 -1
13 1 10.224764259837364 1.475817692372191 16.695535511319246 0 0 -1
29 1 8.946668739667995 0.7379089357650668 2.0856735548853425 0 0 0
30 1 10.224764260332078 2.9516351798390312 2.085673536194319 0 0 0
46 1 8.946668740022602 2.2137264432224373 4.172840309946399 0 0 0
14 1 11.502859740162627 3.6895439693359653 16.69553549398851 0 0 -1
3 1 5.112382259837153 5.903270174841155 16.695535519696413 0 0 -1
4 1 6.390477740162791 8.116996416303477 16.695535518721037 0 0 -1
7 1 7.668573259837155 5.903270174841155 16.69553551969641 0 0 -1
19 1 3.8342867396681233 5.165361461727936 2.0856735511748226 0 0 0
20 1 5.112382260331817 7.37908770195336 2.085673583192504 0 0 0
23 1 6.390477739668123 5.165361461727936 2.085673551174823 0 0 0
24 1 7.668573260331817 7.3790877019533605 2.085673583192504 0 0 0
36 1 3.83428674002233 6.641178945977223 4.172840281298422 0 0 0
39 1 5.112382259977519 4.427452699442335 4.172840302702667 0 0 0
40 1 6.390477740022329 6.641178945977224 4.172840281298422 0 0 0
43 1 7.668573259977519 4.427452699442335 4.172840302702667 0 0 0
8 1 8.946668740162792 8.116996416303477 16.695535518721037 0 0 -1
11 1 10.224764259837155 5.903270174841155 16.695535519696413 0 0 -1
27 1 8.946668739668123 5.165361461727936 2.0856735511748226 0 0 0
28 1 10.224764260331817 7.37908770195336 2.085673583192504 0 0 0
44 1 8.946668740022329 6.641178945977224 4.172840281298422 0 0 0
47 1 10.224764259977519 4.427452699442335 4.172840302702667 0 0 0
12 1 11.502859740162792 8.116996416303477 16.695535518721037 0 0 -1
15 1 12.780955259837153 5.903270174841154 16.695535519696413 0 0 -1
16 1 14.059050740162792 8.116996416303477 16.695535518721037 0 0 -1
31 1 11.502859739668123 5.165361461727935 2.0856735511748226 0 0 0
32 1 12.780955260331819 7.3790877019533605 2.085673583192504 0 0 0
35 1 2.5561912599775183 4.427452699442335 4.172840302702667 0 0 0
48 1 11.50285974002233 6.641178945977224 4.172840281298422 0 0 0
49 1 1.2780957395204502 0.7379089242674376 6.259966284414332 0 0 0
50 1 2.556191260479567 2.951635199662978 6.259966312857352 0 0 0
53 1 3.8342867395204503 0.7379089242674376 6.259966284414332 0 0 0
54 1 5.112382260479567 2.951635199662978 6.259966312857352 0 0 0
57 1 6.390477739520451 0.737908924267437 6.259966284414332 0 0 0
58 1 7.668573260479567 2.9516351996629777 6.259966312857352 0 0 0
61 1 8.946668739520451 0.737908924267437 6.259966284414332 0 0 0
62 1 10.224764260479567 2.9516351996629777 6.259966312857352 0 0 0
51 1 3.834286739520538 5.1653614660105776 6.259966292368303 0 0 0
52 1 5.112382260479327 7.379087712395796 6.259966256456597 0 0 0
55 1 6.390477739520537 5.165361466010578 6.259966292368303 0 0 0
56 1 7.668573260479326 7.379087712395797 6.259966256456597 0 0 0
59 1 8.946668739520536 5.165361466010578 6.259966292368304 0 0 0
60 1 10.224764260479326 7.379087712395796 6.259966256456597 0 0 0
63 1 11.502859739520538 5.1653614660105776 6.259966292368303 0 0 0
64 1 12.780955260479328 7.379087712395797 6.259966256456597 0 0 0
65 1 2.5561912604798342 1.4758177165179978 8.349882208075874 0 0 0
81 1 2.5997804249128855e-07 2.2465002279606157e-07 10.437008213554105 0 0 0
82 1 1.2780957400224326 2.2137264843721605 10.437008184871368 0 0 0
85 1 2.5561912599780428 2.2465002303186154e-07 10.437008213554105 0 0 0
97 1 2.5561912603319277 1.4758177507409025 12.52417494590817 0 0 0
66 1 3.8342867395202447 3.6895440027808486 8.349882190760768 0 0 0
69 1 5.112382260479833 1.4758177165179982 8.349882208075876 0 0 0
70 1 6.390477739520246 3.689544002780849 8.349882190760768 0 0 0
73 1 7.668573260479833 1.4758177165179978 8.349882208075876 0 0 0
86 1 3.834286740022433 2.213726484372161 10.437008184871368 0 0 0
89 1 5.112382259978042 2.2465002331716185e-07 10.437008213554105 0 0 0
90 1 6.390477740022433 2.213726484372161 10.437008184871368 0 0 0
93 1 7.668573259978044 2.2465002300842376e-07 10.437008213554105 0 0 0
98 1 3.8342867396681415 3.6895440147774163 12.524174966859768 0 0 0
101 1 5.112382260331927 1.4758177507409025 12.52417494590817 0 0 0
102 1 6.390477739668141 3.6895440147774163 12.524174966859768 0 0 0
105 1 7.668573260331929 1.4758177507409025 12.52417494590817 0 0 0
74 1 8.946668739520245 3.6895440027808486 8.349882190760768 0 0 0
77 1 10.224764260479834 1.475817716517998 8.349882208075876 0 0 0
94 1 8.946668740022433 2.213726484372161 10.437008184871368 0 0 0
106 1 8.94666873966814 3.6895440147774163 12.524174966859768 0 0 0
109 1 10.224764260331927 1.4758177507409025 12.52417494590817 0 0 0
78 1 11.502859739520247 3.6895440027808486 8.349882190760768 0 0 0
110 1 11.502859739668143 3.6895440147774163 12.524174966859768 0 0 0
67 1 5.112382260479488 5.903270212578398 8.349882237761047 0 0 0
68 1 6.390477739520422 8.116996437946899 8.349882214874336 0 0 0
71 1 7.668573260479488 5.903270212578398 8.349882237761047 0 0 0
84 1 3.834286740022263 6.641178948112215 10.437008220323367 0 0 0
87 1 5.112382259977565 4.4274527365518885 10.437008187656703 0 0 0
88 1 6.390477740022263 6.641178948112215 10.437008220323367 0 0 0
91 1 7.668573259977565 4.4274527365518885 10.437008187656703 0 0 0
99 1 5.112382260331584 5.903270218893715 12.524174920709516 0 0 0
100 1 6.3904777396683725 8.116996459225795 12.524174943078709 0 0 0
103 1 7.668573260331584 5.903270218893715 12.524174920709516 0 0 0
72 1 8.946668739520423 8.116996437946899 8.349882214874336 0 0 0
75 1 10.224764260479487 5.903270212578397 8.349882237761047 0 0 0
92 1 8.946668740022263 6.641178948112215 10.437008220323367 0 0 0
95 1 10.224764259977565 4.4274527365518885 10.437008187656703 0 0 0
104 1 8.946668739668374 8.116996459225795 12.524174943078709 0 0 0
107 1 10.224764260331582 5.903270218893715 12.524174920709516 0 0 0
76 1 11.502859739520423 8.116996437946899 8.349882214874336 0 0 0
79 1 12.780955260479487 5.903270212578397 8.349882237761047 0 0 0
80 1 14.059050739520423 8.116996437946899 8.349882214874336 0 0 0
83 1 2.556191259977564 4.4274527365518885 10.437008187656703 0 0 0
96 1 11.502859740022261 6.641178948112215 10.437008220323365 0 0 0
108 1 11.502859739668374 8.116996459225795 12.524174943078709 0 0 0
111 1 12.780955260331584 5.903270218893715 12.524174920709516 0 0 0
112 1 14.059050739668372 8.116996459225795 12.524174943078709 0 0 0
113 1 1.278095740162798 0.7379090194541578 14.61128299381203 0 0 0
114 1 2.55619125983714 2.9516353008926255 14.611283008601037 0 0 0
117 1 3.834286740162798 0.7379090194541578 14.61128299381203 0 0 0
118 1 5.1123822598371405 2.951635300892626 14.611283008601037 0 0 0
121 1 6.390477740162799 0.7379090194541575 14.61128299381203 0 0 0
122 1 7.668573259837139 2.9516353008926255 14.611283008601037 0 0 0
125 1 8.946668740162798 0.7379090194541571 14.61128299381203 0 0 0
126 1 10.22476425983714 2.9516353008926255 14.611283008601037 0 0 0
115 1 3.834286740162973 5.1653615646649875 14.611282980250376 0 0 0
116 1 5.112382259836928 7.379087809651204 14.611282975222828 0 0 0
119 1 6.390477740162973 5.1653615646649875 14.611282980250376 0 0 0
120 1 7.668573259836927 7.379087809651204 14.611282975222828 0 0 0
123 1 8.946668740162975 5.1653615646649875 14.611282980250376 0 0 0
124 1 10.224764259836927 7.379087809651204 14.611282975222826 0 0 0
127 1 11.502859740162975 5.1653615646649875 14.611282980250376 0 0 0
128 1 12.78095525983693 7.379087809651204 14.611282975222828 0 0 0

Velocities

1 0 0 0
17 0 0 0
18 0 0 0
33 0 0 0
34 0 0 0
37 0 0 0
2 0 0 0
5 0 0 0
6 0 0 0
9 0 0 0
21 0 0 0
22 0 0 0
25 0 0 0
26 0 0 0
38 0 0 0
41 0 0 0
42 0 0 0
45 0 0 0
10 0 0 0
13 0 0 0
29 0 0 0
30 0 0 0
46 0 0 0
14 0 0 0
3 0 0 0
4 0 0 0
7 0 0 0
19 0 0 0
20 0 0 0
23 0 0 0
24 0 0 0
36 0 0 0
39 0 0 0
40 0 0 0
43 0 0 0
8 0 0 0
11 0 0 0
27 0 0 0
28 0 0 0
44 0 0 0
47 0 0 0
12 0 0 0
15 0 0 0
16 0 0 0
31 0 0 0
32 0 0 0
35 0 0 0
48 0 0 0
49 0 0 0
50 0 0 0
53 0 0 0
54 0 0 0
57 0 0 0
58 0 0 0
61 0 0 0
62 0 0 0
51 0 0 0
52 0 0 0
55 0 0 0
56 0 0 0
59 0 0 0
60 0 0 0
63 0 0 0
64 0 0 0
65 0 0 0
81 0 0 0
82 0 0 0
85 0 0 0
97 0 0 0
66 0 0 0
69 0 0 0
70 0 0 0
73 0 0 0
86 0 0 0
89 0 0 0
90 0 0 0
93 0 0 0
98 0 0 0
101 0 0 0
102 0 0 0
105 0 0 0
74 0 0 0
77 0 0 0
94 0 0 0
106 0 0 0
109 0 0 0
78 0 0 0
110 0 0 0
67 0 0 0
68 0 0 0
71 0 0 0
84 0 0 0
87 0 0 0
88 0 0 0
91 0 0 0
99 0 0 0
100 0 0 0
103 0 0 0
72 0 0 0
75 0 0 0
92 0 0 0
95 0 0 0
104 0 0 0
107 0 0 0
76 0 0 0
79 0 0 0
80 0 0 0
83 0 0 0
96 0 0 0
108 0 0 0
111 0 0 0
112 0 0 0
113 0 0 0
114 0 0 0
117 0 0 0
118 0 0 0
121 0 0 0
122 0 0 0
125 0 0 0
126 0 0 0
115 0 0 0
116 0 0 0
119 0 0 0
120 0 0 0
123 0 0 0
124 0 0 0
127 0 0 0
128 0 0 0
