LAMMPS data file via write_data, version 22 Jul 2025, timestep = 3, units = metal

128 atoms
3 atom types

0 10.224764 xlo xhi
0 8.854905 ylo yhi
0 16.69697 zlo zhi
5.112382 0 0 xy xz yz

Masses

1 63.55
2 63.55
3 63.55

Atoms # atomic

1 1 1.2780957191505646 0.7379090518082073 16.695496453625477 0 0 -1
2 1 2.5561912808494167 2.951635248350547 16.69549648743268 0 0 -1
17 1 2.5561912813470204 1.4758177467829856 2.0842311409129457 0 0 0
33 1 1.2780957180363215 0.7379089249621934 4.172768998891107 0 0 0
34 1 2.5561912819637507 2.9516351664835754 4.172768903549091 0 0 0
5 1 3.834286719150565 0.7379090518082081 16.695496453625477 0 0 -1
6 1 5.112382280849417 2.951635248350547 16.69549648743268 0 0 -1
9 1 6.390477719150564 0.7379090518082074 16.695496453625477 0 0 -1
10 1 7.668573280849415 2.9516352483505472 16.69549648743268 0 0 -1
18 1 3.8342867186529643 3.689543951138731 2.0842311581648367 0 0 0
21 1 5.112382281347019 1.4758177467829856 2.0842311409129457 0 0 0
22 1 6.390477718652964 3.689543951138731 2.0842311581648363 0 0 0
25 1 7.668573281347022 1.4758177467829863 2.0842311409129457 0 0 0
37 1 3.8342867180363216 0.7379089249621942 4.172768998891107 0 0 0
38 1 5.11238228196375 2.951635166483575 4.172768903549091 0 0 0
41 1 6.390477718036321 0.7379089249621935 4.172768998891107 0 0 0
42 1 7.668573281963752 2.9516351664835745 4.172768903549091 0 0 0
13 1 8.946668719150566 0.7379090518082073 16.695496453625477 0 0 -1
14 1 10.224764280849417 2.9516352483505464 16.69549648743268 0 0 -1
26 1 8.946668718652964 3.68954395113873 2.0842311581648363 0 0 0
29 1 10.224764281347023 1.4758177467829858 2.084231140912945 0 0 0
45 1 8.946668718036321 0.7379089249621936 4.172768998891107 0 0 0
46 1 10.22476428196375 2.951635166483575 4.172768903549091 0 0 0
30 1 11.502859718652964 3.6895439511387305 2.0842311581648367 0 0 0
3 1 3.834286719150984 5.165361639472159 16.695496447062954 0 0 -1
4 1 5.112382280849027 7.3790877662475935 16.695496410282278 0 0 -1
7 1 6.390477719150984 5.165361639472157 16.695496447062954 0 0 -1
8 1 7.668573280849026 7.379087766247592 16.69549641028228 0 0 -1
19 1 5.112382281346675 5.903270211659537 2.084231119267086 0 0 0
20 1 6.39047771865329 8.116996327086241 2.0842311424949527 0 0 0
23 1 7.668573281346675 5.903270211659537 2.084231119267085 0 0 0
35 1 3.834286718036579 5.165361498455203 4.172768987894067 0 0 0
36 1 5.112382281963306 7.379087700158694 4.172769015888199 0 0 0
39 1 6.390477718036578 5.165361498455203 4.172768987894066 0 0 0
40 1 7.6685732819633055 7.379087700158693 4.172769015888199 0 0 0
11 1 8.946668719150985 5.165361639472157 16.695496447062958 0 0 -1
12 1 10.224764280849026 7.3790877662475935 16.695496410282278 0 0 -1
24 1 8.946668718653289 8.116996327086243 2.084231142494953 0 0 0
27 1 10.224764281346676 5.903270211659537 2.0842311192670855 0 0 0
43 1 8.94666871803658 5.165361498455203 4.172768987894067 0 0 0
44 1 10.224764281963306 7.379087700158693 4.1727690158882 0 0 0
15 1 11.502859719150985 5.165361639472157 16.695496447062954 0 0 -1
16 1 12.780955280849026 7.379087766247592 16.69549641028228 0 0 -1
28 1 11.50285971865329 8.116996327086241 2.0842311424949527 0 0 0
31 1 12.780955281346676 5.903270211659537 2.0842311192670855 0 0 0
32 1 14.059050718653289 8.116996327086243 2.0842311424949527 0 0 0
47 1 11.502859718036579 5.165361498455203 4.172768987894067 0 0 0
48 1 12.780955281963307 7.379087700158694 4.172769015888199 0 0 0
49 1 2.816565754018464e-07 1.5466536632215855e-07 6.261363466882804 0 0 0
50 1 1.278095718343823 2.213726402546718 6.261363466882736 0 0 0
53 1 2.556191281656576 1.5466536660542674e-07 6.261363466882804 0 0 0
54 1 3.8342867183438236 2.2137264025467194 6.261363466882736 0 0 0
57 1 5.112382281656575 1.546653659221867e-07 6.261363466882804 0 0 0
58 1 6.390477718343823 2.2137264025467194 6.261363466882736 0 0 0
61 1 7.668573281656576 1.5466536685945621e-07 6.261363466882804 0 0 0
62 1 8.946668718343822 2.2137264025467194 6.261363466882736 0 0 0
52 1 3.834286718343277 6.641178935390663 6.2613634668831475 0 0 0
55 1 5.112382281656515 4.427452746233206 6.261363466882859 0 0 0
56 1 6.390477718343277 6.641178935390663 6.2613634668831475 0 0 0
59 1 7.668573281656515 4.427452746233206 6.261363466882859 0 0 0
60 1 8.946668718343279 6.641178935390663 6.2613634668831475 0 0 0
63 1 10.224764281656515 4.427452746233206 6.261363466882859 0 0 0
51 1 2.556191281656515 4.427452746233206 6.261363466882859 0 0 0
64 1 11.502859718343277 6.641178935390664 6.2613634668831475 0 0 0
65 1 1.278095718035965 0.7379089249626135 8.349958544496015 0 0 0
66 1 2.556191281964108 2.951635166483629 8.349958639837551 0 0 0
81 1 2.5561912813470204 1.4758177467829967 10.43849583408218 0 0 0
97 1 1.2780957191509237 0.7379090518080106 12.524201098046381 0 0 0
98 1 2.556191280849057 2.9516352483504242 12.524201064238408 0 0 0
69 1 3.834286718035964 0.7379089249626137 8.349958544496015 0 0 0
70 1 5.112382281964107 2.9516351664836287 8.34995863983755 0 0 0
73 1 6.390477718035965 0.7379089249626137 8.349958544496015 0 0 0
74 1 7.6685732819641075 2.9516351664836282 8.34995863983755 0 0 0
82 1 3.8342867186529643 3.689543951138824 10.438495816829679 0 0 0
85 1 5.11238228134702 1.4758177467829965 10.438495834082179 0 0 0
86 1 6.3904777186529635 3.689543951138824 10.438495816829679 0 0 0
89 1 7.6685732813470215 1.4758177467829954 10.43849583408218 0 0 0
101 1 3.8342867191509225 0.7379090518080101 12.524201098046381 0 0 0
102 1 5.112382280849058 2.9516352483504242 12.524201064238408 0 0 0
105 1 6.3904777191509226 0.7379090518080098 12.524201098046381 0 0 0
106 1 7.668573280849057 2.9516352483504242 12.524201064238408 0 0 0
77 1 8.946668718035967 0.7379089249626132 8.349958544496015 0 0 0
78 1 10.22476428196411 2.951635166483629 8.34995863983755 0 0 0
90 1 8.946668718652964 3.6895439511388237 10.438495816829679 0 0 0
93 1 10.22476428134702 1.4758177467829963 10.438495834082179 0 0 0
109 1 8.946668719150923 0.7379090518080093 12.524201098046381 0 0 0
110 1 10.224764280849058 2.9516352483504242 12.524201064238408 0 0 0
94 1 11.502859718652964 3.6895439511388237 10.438495816829679 0 0 0
67 1 3.834286718036222 5.165361498455439 8.349958555493222 0 0 0
68 1 5.112382281963663 7.379087700158235 8.349958527498822 0 0 0
71 1 6.390477718036223 5.1653614984554395 8.349958555493222 0 0 0
72 1 7.668573281963663 7.379087700158234 8.349958527498824 0 0 0
83 1 5.112382281346676 5.903270211659374 10.43849585572726 0 0 0
84 1 6.390477718653289 8.116996327086357 10.4384958324997 0 0 0
87 1 7.668573281346676 5.903270211659374 10.43849585572726 0 0 0
99 1 3.8342867191513426 5.165361639471432 12.524201104609057 0 0 0
100 1 5.112382280848669 7.379087766247765 12.52420114138949 0 0 0
103 1 6.390477719151343 5.165361639471432 12.524201104609055 0 0 0
104 1 7.668573280848667 7.379087766247765 12.524201141389488 0 0 0
75 1 8.946668718036221 5.165361498455439 8.349958555493222 0 0 0
76 1 10.224764281963663 7.379087700158234 8.349958527498824 0 0 0
88 1 8.946668718653289 8.116996327086357 10.4384958324997 0 0 0
91 1 10.224764281346676 5.903270211659374 10.43849585572726 0 0 0
107 1 8.946668719151344 5.16536163947143 12.524201104609057 0 0 0
108 1 10.224764280848667 7.379087766247765 12.524201141389488 0 0 0
79 1 11.502859718036222 5.165361498455439 8.349958555493224 0 0 0
80 1 12.780955281963664 7.379087700158235 8.349958527498824 0 0 0
92 1 11.502859718653289 8.116996327086357 10.4384958324997 0 0 0
95 1 12.780955281346676 5.903270211659374 10.43849585572726 0 0 0
96 1 14.059050718653289 8.116996327086357 10.4384958324997 0 0 0
111 1 11.502859719151342 5.165361639471432 12.524201104609057 0 0 0
112 1 12.780955280848666 7.379087766247766 12.524201141389488 0 0 0
113 1 2.5561912810211953 1.4758177561875996 14.609848463063695 0 0 0
114 1 3.8342867189787846 3.6895439755301416 14.609848463063576 0 0 0
117 1 5.112382281021193 1.475817756187599 14.609848463063695 0 0 0
118 1 6.390477718978785 3.6895439755301416 14.609848463063576 0 0 0
121 1 7.668573281021196 1.4758177561875994 14.609848463063695 0 0 0
122 1 8.946668718978785 3.6895439755301407 14.609848463063576 0 0 0
125 1 10.224764281021194 1.4758177561875996 14.609848463063695 0 0 0
126 1 11.502859718978785 3.6895439755301416 14.609848463063576 0 0 0
115 1 5.112382281020858 5.903270225413177 14.60984846306419 0 0 0
116 1 6.390477718979163 8.116996338822357 14.60984846306355 0 0 0
119 1 7.6685732810208584 5.903270225413177 14.60984846306419 0 0 0
120 1 8.946668718979163 8.116996338822357 14.60984846306355 0 0 0
123 1 10.22476428102086 5.903270225413177 14.60984846306419 0 0 0
124 1 11.502859718979165 8.116996338822357 14.60984846306355 0 0 0
127 1 12.780955281020859 5.903270225413177 14.60984846306419 0 0 0
128 1 14.059050718979165 8.116996338822357 14.60984846306355 0 0 0

Velocities

1 0 0 0
2 0 0 0
17 0 0 0
33 0 0 0
34 0 0 0
5 0 0 0
6 0 0 0
9 0 0 0
10 0 0 0
18 0 0 0
21 0 0 0
22 0 0 0
25 0 0 0
37 0 0 0
38 0 0 0
41 0 0 0
42 0 0 0
13 0 0 0
14 0 0 0
26 0 0 0
29 0 0 0
45 0 0 0
46 0 0 0
30 0 0 0
3 0 0 0
4 0 0 0
7 0 0 0
8 0 0 0
19 0 0 0
20 0 0 0
23 0 0 0
35 0 0 0
36 0 0 0
39 0 0 0
40 0 0 0
11 0 0 0
12 0 0 0
24 0 0 0
27 0 0 0
43 0 0 0
44 0 0 0
15 0 0 0
16 0 0 0
28 0 0 0
31 0 0 0
32 0 0 0
47 0 0 0
48 0 0 0
49 0 0 0
50 0 0 0
53 0 0 0
54 0 0 0
57 0 0 0
58 0 0 0
61 0 0 0
62 0 0 0
52 0 0 0
55 0 0 0
56 0 0 0
59 0 0 0
60 0 0 0
63 0 0 0
51 0 0 0
64 0 0 0
65 0 0 0
66 0 0 0
81 0 0 0
97 0 0 0
98 0 0 0
69 0 0 0
70 0 0 0
73 0 0 0
74 0 0 0
82 0 0 0
85 0 0 0
86 0 0 0
89 0 0 0
101 0 0 0
102 0 0 0
105 0 0 0
106 0 0 0
77 0 0 0
78 0 0 0
90 0 0 0
93 0 0 0
109 0 0 0
110 0 0 0
94 0 0 0
67 0 0 0
68 0 0 0
71 0 0 0
72 0 0 0
83 0 0 0
84 0 0 0
87 0 0 0
99 0 0 0
100 0 0 0
103 0 0 0
104 0 0 0
75 0 0 0
76 0 0 0
88 0 0 0
91 0 0 0
107 0 0 0
108 0 0 0
79 0 0 0
80 0 0 0
92 0 0 0
95 0 0 0
96 0 0 0
111 0 0 0
112 0 0 0
113 0 0 0
114 0 0 0
117 0 0 0
118 0 0 0
121 0 0 0
122 0 0 0
125 0 0 0
126 0 0 0
115 0 0 0
116 0 0 0
119 0 0 0
120 0 0 0
123 0 0 0
124 0 0 0
127 0 0 0
128 0 0 0
