LAMMPS data file via write_data, version 22 Jul 2025, timestep = 3, units = metal

128 atoms
3 atom types

0 10.224764 xlo xhi
0 8.854905 ylo yhi
0 16.69697 zlo zhi
5.112382 0 0 xy xz yz

Masses

1 63.55
2 63.55
3 63.55

Atoms # atomic

1 1 2.8523844274607095e-07 1.329593886540576e-07 0.0014736547834824864 0 0 0
2 1 1.2780957147620318 2.2137263848774382 0.001473647283820931 0 0 0
5 1 2.5561912852384427 1.3295938732740724e-07 0.0014736547834839297 0 0 0
17 1 1.278095714589683 0.737908867059791 2.0871209931752435 0 0 0
18 1 2.556191285410491 2.951635092589389 2.0871209931749224 0 0 0
33 1 2.8523808784717644e-07 1.3295923769391197e-07 4.172768883879932 0 0 0
34 1 1.2780957147623877 2.2137263848769937 4.172768891379802 0 0 0
37 1 2.5561912852380875 1.3295923815236035e-07 4.172768883879932 0 0 0
6 1 3.8342867147620336 2.2137263848774396 0.0014736472838223348 0 0 0
9 1 5.112382285238444 1.3295938810913072e-07 0.0014736547834826301 0 0 0
10 1 6.390477714762032 2.2137263848774387 0.0014736472838222192 0 0 0
13 1 7.668573285238443 1.3295938802701842e-07 0.0014736547834830749 0 0 0
21 1 3.834286714589682 0.7379088670597914 2.0871209931752435 0 0 0
22 1 5.112382285410491 2.951635092589389 2.087120993174922 0 0 0
25 1 6.390477714589684 0.7379088670597915 2.087120993175243 0 0 0
26 1 7.668573285410491 2.9516350925893886 2.0871209931749224 0 0 0
38 1 3.8342867147623885 2.2137263848769937 4.172768891379801 0 0 0
41 1 5.1123822852380885 1.3295923764065653e-07 4.172768883879933 0 0 0
42 1 6.390477714762389 2.2137263848769937 4.172768891379802 0 0 0
45 1 7.668573285238089 1.3295923835408405e-07 4.172768883879932 0 0 0
14 1 8.946668714762033 2.2137263848774382 0.0014736472838213937 0 0 0
29 1 8.946668714589682 0.7379088670597909 2.087120993175243 0 0 0
30 1 10.22476428541049 2.9516350925893904 2.087120993174922 0 0 0
46 1 8.946668714762389 2.2137263848769937 4.172768891379802 0 0 0
4 1 3.8342867147613853 6.64117890445629 0.0014736516251286243 0 0 0
7 1 5.112382285238294 4.42745270003927 0.0014736420796724711 0 0 0
8 1 6.390477714761387 6.64117890445629 0.0014736516251285911 0 0 0
11 1 7.6685732852382955 4.42745270003927 0.0014736420796723577 0 0 0
19 1 3.834286714589836 5.165361301417064 2.087120993175185 0 0 0
20 1 5.112382285409835 7.37908761638537 2.087120993175153 0 0 0
23 1 6.390477714589835 5.165361301417064 2.087120993175185 0 0 0
24 1 7.668573285409835 7.37908761638537 2.087120993175152 0 0 0
36 1 3.834286714761741 6.6411789044563365 4.17276888703829 0 0 0
39 1 5.112382285237938 4.42745270003966 4.172768896583764 0 0 0
40 1 6.390477714761741 6.6411789044563365 4.17276888703829 0 0 0
43 1 7.6685732852379385 4.42745270003966 4.172768896583764 0 0 0
12 1 8.946668714761385 6.64117890445629 0.0014736516251283734 0 0 0
15 1 10.224764285238296 4.427452700039269 0.0014736420796725997 0 0 0
27 1 8.946668714589837 5.165361301417063 2.0871209931751844 0 0 0
28 1 10.224764285409837 7.379087616385369 2.0871209931751524 0 0 0
44 1 8.946668714761742 6.6411789044563365 4.172768887038291 0 0 0
47 1 10.22476428523794 4.427452700039661 4.172768896583763 0 0 0
3 1 2.5561912852382935 4.427452700039269 0.0014736420796718273 0 0 0
16 1 11.502859714761387 6.64117890445629 0.0014736516251280963 0 0 0
31 1 11.502859714589835 5.165361301417063 2.087120993175185 0 0 0
32 1 12.780955285409835 7.37908761638537 2.087120993175152 0 0 0
35 1 2.5561912852379396 4.427452700039659 4.172768896583764 0 0 0
48 1 11.50285971476174 6.6411789044563365 4.17276888703829 0 0 0
49 1 1.278095714255762 0.7379088706426324 6.258473622354344 0 0 0
50 1 2.5561912857444256 2.9516351044397435 6.258473642674199 0 0 0
53 1 3.8342867142557635 0.7379088706426323 6.258473622354344 0 0 0
54 1 5.1123822857444265 2.9516351044397435 6.258473642674199 0 0 0
57 1 6.390477714255763 0.7379088706426328 6.258473622354343 0 0 0
58 1 7.668573285744426 2.951635104439744 6.258473642674199 0 0 0
61 1 8.946668714255765 0.7379088706426314 6.258473622354343 0 0 0
62 1 10.224764285744426 2.9516351044397435 6.258473642674199 0 0 0
51 1 3.8342867142558505 5.165361304524215 6.258473639809771 0 0 0
52 1 5.112382285743784 7.379087621249992 6.258473642095117 0 0 0
55 1 6.3904777142558515 5.165361304524215 6.258473639809771 0 0 0
56 1 7.6685732857437845 7.37908762124999 6.258473642095118 0 0 0
59 1 8.94666871425585 5.1653613045242155 6.258473639809771 0 0 0
60 1 10.224764285743786 7.37908762124999 6.258473642095117 0 0 0
63 1 11.502859714255852 5.165361304524215 6.258473639809772 0 0 0
64 1 12.780955285743783 7.379087621249991 6.258473642095118 0 0 0
65 1 2.8631991728206293e-07 1.4955596381660945e-07 8.347011473666935 0 0 0
66 1 1.2780957136806266 2.2137264811538286 8.347011504815235 0 0 0
69 1 2.5561912863199168 1.4955596319875034e-07 8.347011473666937 0 0 0
81 1 2.5561912860638962 1.475817827783977 10.435606002577424 0 0 0
97 1 2.863195634420278e-07 1.4955585505261279e-07 12.52420106049912 0 0 0
98 1 1.2780957136809816 2.2137264811535324 12.524201029350646 0 0 0
101 1 2.5561912863195637 1.4955585505031037e-07 12.52420106049912 0 0 0
70 1 3.8342867136806285 2.213726481153828 8.347011504815237 0 0 0
73 1 5.112382286319918 1.495559639415841e-07 8.347011473666937 0 0 0
74 1 6.390477713680627 2.2137264811538286 8.347011504815237 0 0 0
77 1 7.6685732863199165 1.4955596375214566e-07 8.347011473666937 0 0 0
82 1 3.8342867139364563 3.689543992147162 10.43560600257707 0 0 0
85 1 5.112382286063896 1.4758178277839773 10.435606002577424 0 0 0
86 1 6.3904777139364555 3.6895439921471627 10.43560600257707 0 0 0
89 1 7.668573286063896 1.475817827783977 10.435606002577426 0 0 0
102 1 3.834286713680981 2.2137264811535324 12.524201029350646 0 0 0
105 1 5.112382286319563 1.495558550896175e-07 12.52420106049912 0 0 0
106 1 6.390477713680981 2.2137264811535324 12.524201029350646 0 0 0
109 1 7.668573286319563 1.495558552385316e-07 12.52420106049912 0 0 0
78 1 8.946668713680628 2.213726481153828 8.347011504815237 0 0 0
90 1 8.946668713936457 3.6895439921471627 10.43560600257707 0 0 0
93 1 10.224764286063897 1.4758178277839784 10.435606002577424 0 0 0
110 1 8.946668713680982 2.213726481153532 12.524201029350646 0 0 0
94 1 11.502859713936456 3.6895439921471627 10.43560600257707 0 0 0
68 1 3.834286713680079 6.641178948128371 8.347011505442241 0 0 0
71 1 5.11238228631942 4.427452713227059 8.347011476428666 0 0 0
72 1 6.39047771368008 6.641178948128371 8.347011505442241 0 0 0
75 1 7.668573286319418 4.42745271322706 8.347011476428666 0 0 0
83 1 5.112382286062978 5.903270260627365 10.435606002577112 0 0 0
84 1 6.390477713936769 8.11699641148194 10.435606002577442 0 0 0
87 1 7.668573286062978 5.903270260627366 10.435606002577112 0 0 0
100 1 3.8342867136804344 6.64117894812805 12.524201028723539 0 0 0
103 1 5.112382286319065 4.427452713227481 12.524201057737601 0 0 0
104 1 6.3904777136804345 6.641178948128049 12.524201028723539 0 0 0
107 1 7.668573286319064 4.427452713227481 12.524201057737603 0 0 0
76 1 8.94666871368008 6.641178948128371 8.347011505442241 0 0 0
79 1 10.22476428631942 4.427452713227059 8.347011476428666 0 0 0
88 1 8.946668713936768 8.11699641148194 10.435606002577442 0 0 0
91 1 10.224764286062976 5.903270260627365 10.435606002577112 0 0 0
108 1 8.946668713680433 6.641178948128049 12.524201028723539 0 0 0
111 1 10.224764286319065 4.427452713227481 12.524201057737601 0 0 0
67 1 2.556191286319419 4.427452713227059 8.347011476428666 0 0 0
80 1 11.502859713680081 6.641178948128371 8.347011505442241 0 0 0
92 1 11.502859713936768 8.11699641148194 10.435606002577442 0 0 0
95 1 12.78095528606298 5.903270260627366 10.435606002577112 0 0 0
96 1 14.059050713936767 8.11699641148194 10.435606002577442 0 0 0
99 1 2.556191286319065 4.427452713227481 12.524201057737601 0 0 0
112 1 11.502859713680436 6.641178948128049 12.524201028723539 0 0 0
113 1 1.2780957142557694 0.7379088706426542 14.612738309063726 0 0 0
114 1 2.5561912857444176 2.9516351044397164 14.61273828874451 0 0 0
117 1 3.834286714255771 0.7379088706426535 14.612738309063726 0 0 0
118 1 5.1123822857444186 2.951635104439716 14.61273828874451 0 0 0
121 1 6.39047771425577 0.7379088706426531 14.612738309063726 0 0 0
122 1 7.668573285744418 2.9516351044397173 14.61273828874451 0 0 0
125 1 8.94666871425577 0.7379088706426531 14.612738309063726 0 0 0
126 1 10.224764285744419 2.951635104439716 14.61273828874451 0 0 0
115 1 3.8342867142558585 5.165361304524238 14.612738291608252 0 0 0
116 1 5.112382285743777 7.3790876212499885 14.612738289322648 0 0 0
119 1 6.3904777142558595 5.165361304524238 14.612738291608252 0 0 0
120 1 7.668573285743777 7.379087621249987 14.61273828932265 0 0 0
123 1 8.946668714255859 5.165361304524239 14.612738291608252 0 0 0
124 1 10.224764285743777 7.3790876212499885 14.61273828932265 0 0 0
127 1 11.50285971425586 5.165361304524238 14.612738291608252 0 0 0
128 1 12.780955285743776 7.379087621249988 14.61273828932265 0 0 0

Velocities

1 0 0 0
2 0 0 0
5 0 0 0
17 0 0 0
18 0 0 0
33 0 0 0
34 0 0 0
37 0 0 0
6 0 0 0
9 0 0 0
10 0 0 0
13 0 0 0
21 0 0 0
22 0 0 0
25 0 0 0
26 0 0 0
38 0 0 0
41 0 0 0
42 0 0 0
45 0 0 0
14 0 0 0
29 0 0 0
30 0 0 0
46 0 0 0
4 0 0 0
7 0 0 0
8 0 0 0
11 0 0 0
19 0 0 0
20 0 0 0
23 0 0 0
24 0 0 0
36 0 0 0
39 0 0 0
40 0 0 0
43 0 0 0
12 0 0 0
15 0 0 0
27 0 0 0
28 0 0 0
44 0 0 0
47 0 0 0
3 0 0 0
16 0 0 0
31 0 0 0
32 0 0 0
35 0 0 0
48 0 0 0
49 0 0 0
50 0 0 0
53 0 0 0
54 0 0 0
57 0 0 0
58 0 0 0
61 0 0 0
62 0 0 0
51 0 0 0
52 0 0 0
55 0 0 0
56 0 0 0
59 0 0 0
60 0 0 0
63 0 0 0
64 0 0 0
65 0 0 0
66 0 0 0
69 0 0 0
81 0 0 0
97 0 0 0
98 0 0 0
101 0 0 0
70 0 0 0
73 0 0 0
74 0 0 0
77 0 0 0
82 0 0 0
85 0 0 0
86 0 0 0
89 0 0 0
102 0 0 0
105 0 0 0
106 0 0 0
109 0 0 0
78 0 0 0
90 0 0 0
93 0 0 0
110 0 0 0
94 0 0 0
68 0 0 0
71 0 0 0
72 0 0 0
75 0 0 0
83 0 0 0
84 0 0 0
87 0 0 0
100 0 0 0
103 0 0 0
104 0 0 0
107 0 0 0
76 0 0 0
79 0 0 0
88 0 0 0
91 0 0 0
108 0 0 0
111 0 0 0
67 0 0 0
80 0 0 0
92 0 0 0
95 0 0 0
96 0 0 0
99 0 0 0
112 0 0 0
113 0 0 0
114 0 0 0
117 0 0 0
118 0 0 0
121 0 0 0
122 0 0 0
125 0 0 0
126 0 0 0
115 0 0 0
116 0 0 0
119 0 0 0
120 0 0 0
123 0 0 0
124 0 0 0
127 0 0 0
128 0 0 0
