LAMMPS data file via write_data, version 22 Jul 2025, timestep = 5, units = metal

128 atoms
3 atom types

0 10.224764 xlo xhi
0 8.854905 ylo yhi
0 16.69697 zlo zhi
5.112382 0 0 xy xz yz

Masses

1 63.55
2 63.55
3 63.55

Atoms # atomic

1 1 2.5561912488484544 1.4758177211218593 16.69693839887586 0 0 -1
17 1 2.486325552961329e-07 1.839278512724389e-07 2.0871210858784965 0 0 0
18 1 1.2780957513675264 2.2137264924936786 2.0871210858786227 0 0 0
21 1 2.5561912486325564 1.839278510018431e-07 2.0871210858784965 0 0 0
33 1 2.5561912488484673 1.4758177211217955 4.174273931303736 0 0 0
2 1 3.834286751151539 3.6895439536545998 16.696938415562972 0 0 -1
5 1 5.112382248848455 1.4758177211218595 16.69693839887586 0 0 -1
6 1 6.39047775115154 3.6895439536546 16.696938415562972 0 0 -1
9 1 7.668573248848453 1.475817721121859 16.69693839887586 0 0 -1
22 1 3.8342867513675265 2.2137264924936786 2.087121085878622 0 0 0
25 1 5.112382248632556 1.8392785137019145e-07 2.087121085878496 0 0 0
26 1 6.390477751367525 2.2137264924936786 2.087121085878622 0 0 0
29 1 7.668573248632555 1.839278509158401e-07 2.087121085878496 0 0 0
34 1 3.8342867511515255 3.6895439536546535 4.174273914616423 0 0 0
37 1 5.112382248848467 1.4758177211217958 4.174273931303736 0 0 0
38 1 6.390477751151526 3.6895439536546535 4.174273914616424 0 0 0
41 1 7.668573248848467 1.4758177211217955 4.174273931303736 0 0 0
10 1 8.946668751151538 3.6895439536545998 16.696938415562972 0 0 -1
13 1 10.224764248848455 1.4758177211218593 16.69693839887586 0 0 -1
30 1 8.946668751367527 2.213726492493678 2.087121085878622 0 0 0
42 1 8.946668751151526 3.689543953654653 4.174273914616423 0 0 0
45 1 10.224764248848468 1.4758177211217953 4.174273931303736 0 0 0
14 1 11.502859751151538 3.6895439536546 16.696938415562972 0 0 -1
46 1 11.502859751151526 3.6895439536546535 4.174273914616424 0 0 0
3 1 5.11238224884842 5.903270227808587 16.69693839134875 0 0 -1
4 1 6.390477751151576 8.116996459370027 16.696938419941365 0 0 -1
7 1 7.6685732488484195 5.903270227808587 16.69693839134875 0 0 -1
20 1 3.834286751367446 6.641178988225823 2.0871210858785694 0 0 0
23 1 5.112382248632501 4.427452671691072 2.0871210858785525 0 0 0
24 1 6.390477751367446 6.641178988225823 2.087121085878569 0 0 0
27 1 7.6685732486325 4.427452671691073 2.0871210858785525 0 0 0
35 1 5.112382248848434 5.903270227808591 4.174273938830749 0 0 0
36 1 6.390477751151561 8.116996459370112 4.1742739102378765 0 0 0
39 1 7.668573248848433 5.903270227808591 4.174273938830749 0 0 0
8 1 8.946668751151575 8.116996459370027 16.696938419941365 0 0 -1
11 1 10.224764248848418 5.903270227808586 16.69693839134875 0 0 -1
28 1 8.946668751367447 6.641178988225823 2.0871210858785694 0 0 0
31 1 10.2247642486325 4.427452671691072 2.087121085878552 0 0 0
40 1 8.946668751151563 8.116996459370112 4.174273910237878 0 0 0
43 1 10.224764248848434 5.903270227808591 4.174273938830748 0 0 0
12 1 11.502859751151576 8.116996459370027 16.696938419941365 0 0 -1
15 1 12.780955248848418 5.903270227808586 16.69693839134875 0 0 -1
16 1 14.059050751151574 8.116996459370027 16.696938419941365 0 0 -1
19 1 2.5561912486324996 4.427452671691072 2.087121085878552 0 0 0
32 1 11.502859751367446 6.641178988225823 2.0871210858785694 0 0 0
44 1 11.502859751151563 8.116996459370112 4.1742739102378765 0 0 0
47 1 12.780955248848432 5.903270227808591 4.174273938830749 0 0 0
48 1 14.059050751151563 8.116996459370112 4.174273910237878 0 0 0
49 1 1.2780957511539532 0.7379089618144137 6.264245974296548 0 0 0
50 1 2.5561912488460683 2.9516351851441467 6.264245980470544 0 0 0
53 1 3.8342867511539533 0.737908961814413 6.264245974296548 0 0 0
54 1 5.112382248846068 2.9516351851441467 6.264245980470544 0 0 0
57 1 6.390477751153953 0.7379089618144138 6.264245974296548 0 0 0
58 1 7.668573248846069 2.9516351851441467 6.264245980470544 0 0 0
61 1 8.946668751153954 0.7379089618144136 6.264245974296548 0 0 0
62 1 10.224764248846068 2.9516351851441467 6.264245980470544 0 0 0
51 1 3.8342867511539263 5.165361478575451 6.264245976784029 0 0 0
52 1 5.112382248846038 7.379087672808717 6.2642459769117 0 0 0
55 1 6.390477751153927 5.165361478575451 6.264245976784029 0 0 0
56 1 7.668573248846037 7.379087672808717 6.2642459769117 0 0 0
59 1 8.946668751153927 5.165361478575451 6.264245976784028 0 0 0
60 1 10.224764248846036 7.379087672808717 6.2642459769117 0 0 0
63 1 11.502859751153926 5.165361478575451 6.264245976784029 0 0 0
64 1 12.780955248846038 7.379087672808717 6.2642459769117 0 0 0
65 1 2.4869942635221894e-07 1.8710961992274198e-07 8.351374055588268 0 0 0
66 1 1.2780957513006297 2.2137264287147174 8.351374038634349 0 0 0
69 1 2.5561912486994265 1.8710962001872616e-07 8.351374055588268 0 0 0
81 1 1.2780957512289175 0.7379088445134623 10.43560608135897 0 0 0
82 1 2.5561912487711416 2.9516351137763337 10.435606081358877 0 0 0
97 1 2.4869943922768095e-07 1.8710969623558678e-07 12.51983827949356 0 0 0
98 1 1.2780957513006164 2.2137264287147644 12.519838296447256 0 0 0
101 1 2.55619124869944 1.8710969618088753e-07 12.51983827949356 0 0 0
70 1 3.8342867513006293 2.213726428714717 8.351374038634349 0 0 0
73 1 5.112382248699426 1.8710961962175493e-07 8.351374055588268 0 0 0
74 1 6.3904777513006294 2.2137264287147174 8.351374038634349 0 0 0
77 1 7.668573248699426 1.871096199742436e-07 8.351374055588268 0 0 0
85 1 3.8342867512289183 0.7379088445134628 10.43560608135897 0 0 0
86 1 5.112382248771142 2.951635113776334 10.435606081358877 0 0 0
89 1 6.390477751228917 0.7379088445134628 10.43560608135897 0 0 0
90 1 7.668573248771141 2.951635113776334 10.435606081358877 0 0 0
102 1 3.834286751300616 2.213726428714765 12.519838296447256 0 0 0
105 1 5.112382248699441 1.8710969584794313e-07 12.51983827949356 0 0 0
106 1 6.390477751300617 2.213726428714765 12.519838296447254 0 0 0
109 1 7.66857324869944 1.871096955638259e-07 12.51983827949356 0 0 0
78 1 8.94666875130063 2.213726428714717 8.351374038634349 0 0 0
93 1 8.946668751228918 0.7379088445134631 10.43560608135897 0 0 0
94 1 10.224764248771141 2.951635113776334 10.435606081358877 0 0 0
110 1 8.946668751300617 2.213726428714765 12.519838296447256 0 0 0
68 1 3.834286751300524 6.641178926029962 8.351374039095298 0 0 0
71 1 5.112382248699421 4.427452677043981 8.351374047834774 0 0 0
72 1 6.390477751300525 6.641178926029962 8.351374039095298 0 0 0
75 1 7.6685732486994205 4.427452677043981 8.351374047834774 0 0 0
83 1 3.8342867512289414 5.165361337387757 10.435606081358983 0 0 0
84 1 5.11238224877101 7.3790876095916635 10.43560608135892 0 0 0
87 1 6.390477751228941 5.165361337387757 10.435606081358983 0 0 0
88 1 7.668573248771011 7.3790876095916635 10.43560608135892 0 0 0
100 1 3.8342867513005117 6.641178926029913 12.519838295986363 0 0 0
103 1 5.112382248699435 4.42745267704397 12.519838287246984 0 0 0
104 1 6.390477751300512 6.641178926029913 12.519838295986363 0 0 0
107 1 7.668573248699435 4.42745267704397 12.519838287246984 0 0 0
76 1 8.946668751300525 6.641178926029961 8.351374039095298 0 0 0
79 1 10.22476424869942 4.427452677043981 8.351374047834774 0 0 0
91 1 8.946668751228941 5.165361337387757 10.435606081358983 0 0 0
92 1 10.224764248771013 7.3790876095916635 10.43560608135892 0 0 0
108 1 8.946668751300512 6.6411789260299114 12.519838295986363 0 0 0
111 1 10.224764248699435 4.42745267704397 12.519838287246984 0 0 0
67 1 2.5561912486994207 4.427452677043981 8.351374047834774 0 0 0
80 1 11.502859751300525 6.641178926029961 8.351374039095298 0 0 0
95 1 11.502859751228943 5.165361337387757 10.435606081358983 0 0 0
96 1 12.780955248771011 7.3790876095916635 10.43560608135892 0 0 0
99 1 2.556191248699435 4.42745267704397 12.519838287246984 0 0 0
112 1 11.502859751300512 6.641178926029913 12.519838295986363 0 0 0
113 1 1.2780957511539532 0.7379089618145579 14.606966193204865 0 0 0
114 1 2.5561912488460687 2.951635185144107 14.60696618703086 0 0 0
117 1 3.8342867511539533 0.7379089618145575 14.606966193204865 0 0 0
118 1 5.112382248846068 2.951635185144107 14.60696618703086 0 0 0
121 1 6.390477751153954 0.7379089618145576 14.606966193204865 0 0 0
122 1 7.668573248846069 2.9516351851441076 14.60696618703086 0 0 0
125 1 8.946668751153954 0.7379089618145576 14.606966193204865 0 0 0
126 1 10.22476424884607 2.9516351851441076 14.60696618703086 0 0 0
115 1 3.8342867511539263 5.165361478575442 14.60696619071727 0 0 0
116 1 5.112382248846037 7.379087672808667 14.606966190589615 0 0 0
119 1 6.3904777511539255 5.165361478575442 14.60696619071727 0 0 0
120 1 7.668573248846037 7.379087672808667 14.606966190589615 0 0 0
123 1 8.946668751153926 5.165361478575442 14.60696619071727 0 0 0
124 1 10.224764248846038 7.379087672808667 14.606966190589615 0 0 0
127 1 11.502859751153927 5.165361478575442 14.60696619071727 0 0 0
128 1 12.780955248846038 7.379087672808667 14.606966190589615 0 0 0

Velocities

1 0 0 0
17 0 0 0
18 0 0 0
21 0 0 0
33 0 0 0
2 0 0 0
5 0 0 0
6 0 0 0
9 0 0 0
22 0 0 0
25 0 0 0
26 0 0 0
29 0 0 0
34 0 0 0
37 0 0 0
38 0 0 0
41 0 0 0
10 0 0 0
13 0 0 0
30 0 0 0
42 0 0 0
45 0 0 0
14 0 0 0
46 0 0 0
3 0 0 0
4 0 0 0
7 0 0 0
20 0 0 0
23 0 0 0
24 0 0 0
27 0 0 0
35 0 0 0
36 0 0 0
39 0 0 0
8 0 0 0
11 0 0 0
28 0 0 0
31 0 0 0
40 0 0 0
43 0 0 0
12 0 0 0
15 0 0 0
16 0 0 0
19 0 0 0
32 0 0 0
44 0 0 0
47 0 0 0
48 0 0 0
49 0 0 0
50 0 0 0
53 0 0 0
54 0 0 0
57 0 0 0
58 0 0 0
61 0 0 0
62 0 0 0
51 0 0 0
52 0 0 0
55 0 0 0
56 0 0 0
59 0 0 0
60 0 0 0
63 0 0 0
64 0 0 0
65 0 0 0
66 0 0 0
69 0 0 0
81 0 0 0
82 0 0 0
97 0 0 0
98 0 0 0
101 0 0 0
70 0 0 0
73 0 0 0
74 0 0 0
77 0 0 0
85 0 0 0
86 0 0 0
89 0 0 0
90 0 0 0
102 0 0 0
105 0 0 0
106 0 0 0
109 0 0 0
78 0 0 0
93 0 0 0
94 0 0 0
110 0 0 0
68 0 0 0
71 0 0 0
72 0 0 0
75 0 0 0
83 0 0 0
84 0 0 0
87 0 0 0
88 0 0 0
100 0 0 0
103 0 0 0
104 0 0 0
107 0 0 0
76 0 0 0
79 0 0 0
91 0 0 0
92 0 0 0
108 0 0 0
111 0 0 0
67 0 0 0
80 0 0 0
95 0 0 0
96 0 0 0
99 0 0 0
112 0 0 0
113 0 0 0
114 0 0 0
117 0 0 0
118 0 0 0
121 0 0 0
122 0 0 0
125 0 0 0
126 0 0 0
115 0 0 0
116 0 0 0
119 0 0 0
120 0 0 0
123 0 0 0
124 0 0 0
127 0 0 0
128 0 0 0
