LAMMPS data file via write_data, version 22 Jul 2025, timestep = 4, units = metal

128 atoms
3 atom types

0 10.224764 xlo xhi
0 8.854905 ylo yhi
0 16.69697 zlo zhi
5.112382 0 0 xy xz yz

Masses

1 63.55
2 63.55
3 63.55

Atoms # atomic

1 1 2.603283645911512e-07 1.6939824361377453e-07 0.001447443814473065 0 0 0
2 1 1.2780957396719763 2.2137264431737464 0.0014474429607647782 0 0 0
5 1 2.556191260328365 1.693982438328137e-07 0.0014474438144727367 0 0 0
17 1 1.278095740166349 0.7379088657138133 2.0885554925578727 0 0 0
18 1 2.556191259833785 2.9516350981681256 2.0885554689886447 0 0 0
33 1 2.5983346322970446e-07 1.522414362829408e-07 4.17280801395055 0 0 0
34 1 1.2780957401667699 2.213726421547592 4.172808009530821 0 0 0
37 1 2.5561912598334633 1.5224143602133481e-07 4.172808013950551 0 0 0
6 1 3.8342867396719766 2.2137264431737464 0.0014474429607651642 0 0 0
9 1 5.112382260328366 1.693982442939777e-07 0.0014474438144732402 0 0 0
10 1 6.3904777396719785 2.213726443173747 0.0014474429607648628 0 0 0
13 1 7.668573260328364 1.6939824403499115e-07 0.0014474438144726058 0 0 0
21 1 3.834286740166349 0.7379088657138134 2.088555492557873 0 0 0
22 1 5.112382259833785 2.9516350981681265 2.0885554689886447 0 0 0
25 1 6.390477740166349 0.7379088657138133 2.088555492557873 0 0 0
26 1 7.668573259833785 2.9516350981681265 2.0885554689886447 0 0 0
38 1 3.83428674016677 2.2137264215475922 4.17280800953082 0 0 0
41 1 5.112382259833463 1.522414366171762e-07 4.172808013950551 0 0 0
42 1 6.390477740166769 2.213726421547592 4.17280800953082 0 0 0
45 1 7.668573259833463 1.5224143629742287e-07 4.17280801395055 0 0 0
14 1 8.946668739671978 2.2137264431737464 0.0014474429607650647 0 0 0
29 1 8.946668740166348 0.7379088657138132 2.0885554925578727 0 0 0
30 1 10.224764259833785 2.9516350981681265 2.0885554689886447 0 0 0
46 1 8.946668740166771 2.213726421547592 4.172808009530821 0 0 0
4 1 3.8342867396715925 6.641178942741874 0.001447445454513537 0 0 0
7 1 5.112382260328053 4.427452722004733 0.0014474442012215524 0 0 0
8 1 6.390477739671592 6.641178942741874 0.0014474454545134563 0 0 0
11 1 7.668573260328054 4.427452722004733 0.0014474442012215208 0 0 0
19 1 3.834286740166415 5.165361346149322 2.0885554832943236 0 0 0
20 1 5.1123822598334066 7.379087604225264 2.0885555081496165 0 0 0
23 1 6.390477740166416 5.165361346149323 2.088555483294324 0 0 0
24 1 7.668573259833407 7.379087604225264 2.0885555081496165 0 0 0
36 1 3.8342867401664 6.641178928547849 4.17280801252696 0 0 0
39 1 5.112382259833411 4.427452688384106 4.172808009393306 0 0 0
40 1 6.390477740166401 6.641178928547848 4.17280801252696 0 0 0
43 1 7.668573259833411 4.427452688384106 4.172808009393306 0 0 0
12 1 8.946668739671592 6.641178942741874 0.0014474454545130965 0 0 0
15 1 10.224764260328055 4.427452722004733 0.0014474442012217972 0 0 0
27 1 8.946668740166416 5.165361346149323 2.0885554832943236 0 0 0
28 1 10.224764259833407 7.3790876042252656 2.088555508149617 0 0 0
44 1 8.946668740166398 6.641178928547848 4.172808012526959 0 0 0
47 1 10.22476425983341 4.427452688384106 4.172808009393306 0 0 0
3 1 2.5561912603280557 4.427452722004733 0.0014474442012218976 0 0 0
16 1 11.502859739671592 6.641178942741874 0.001447445454513309 0 0 0
31 1 11.502859740166416 5.165361346149323 2.0885554832943236 0 0 0
32 1 12.780955259833405 7.3790876042252656 2.0885555081496165 0 0 0
35 1 2.5561912598334113 4.427452688384106 4.172808009393306 0 0 0
48 1 11.502859740166398 6.641178928547848 4.172808012526959 0 0 0
49 1 1.2780957396719068 0.7379089494820568 6.259916058530404 0 0 0
50 1 2.556191260328217 2.951635185876189 6.259916078675593 0 0 0
53 1 3.834286739671907 0.7379089494820569 6.259916058530404 0 0 0
54 1 5.112382260328216 2.951635185876189 6.259916078675593 0 0 0
57 1 6.3904777396719075 0.737908949482057 6.259916058530404 0 0 0
58 1 7.668573260328216 2.9516351858761887 6.259916078675593 0 0 0
61 1 8.946668739671907 0.7379089494820565 6.259916058530402 0 0 0
62 1 10.224764260328218 2.951635185876189 6.259916078675593 0 0 0
51 1 3.8342867396720326 5.165361436188457 6.259916052451814 0 0 0
52 1 5.112382260327853 7.379087705281595 6.2599160319068154 0 0 0
55 1 6.390477739672033 5.165361436188457 6.259916052451813 0 0 0
56 1 7.668573260327853 7.379087705281595 6.2599160319068154 0 0 0
59 1 8.946668739672031 5.165361436188456 6.259916052451814 0 0 0
60 1 10.224764260327852 7.379087705281595 6.2599160319068154 0 0 0
63 1 11.502859739672033 5.165361436188457 6.259916052451814 0 0 0
64 1 12.780955260327854 7.379087705281595 6.259916031906815 0 0 0
65 1 2.556191259974053 1.4758176735794877 8.347082796151321 0 0 0
81 1 1.278095739524105 0.7379089600460841 10.43420877999294 0 0 0
82 1 2.556191260476031 2.951635191226728 10.434208762586026 0 0 0
97 1 2.6047580897112e-07 1.967363070578122e-07 12.524124717943382 0 0 0
98 1 1.278095739524494 2.2137264705835906 12.52412471710667 0 0 0
101 1 2.556191260475809 1.9673630726111177e-07 12.524124717943382 0 0 0
66 1 3.8342867400259846 3.6895439532690455 8.347082800468524 0 0 0
69 1 5.112382259974052 1.4758176735794883 8.347082796151321 0 0 0
70 1 6.390477740025984 3.6895439532690455 8.347082800468524 0 0 0
73 1 7.668573259974053 1.4758176735794881 8.347082796151321 0 0 0
85 1 3.834286739524105 0.7379089600460842 10.43420877999294 0 0 0
86 1 5.11238226047603 2.951635191226728 10.434208762586026 0 0 0
89 1 6.390477739524106 0.7379089600460844 10.43420877999294 0 0 0
90 1 7.668573260476031 2.9516351912267274 10.434208762586026 0 0 0
102 1 3.8342867395244946 2.2137264705835906 12.52412471710667 0 0 0
105 1 5.112382260475808 1.9673630738276124e-07 12.524124717943382 0 0 0
106 1 6.390477739524494 2.2137264705835906 12.52412471710667 0 0 0
109 1 7.668573260475809 1.9673630696790184e-07 12.524124717943382 0 0 0
74 1 8.946668740025986 3.6895439532690455 8.347082800468524 0 0 0
77 1 10.224764259974053 1.4758176735794881 8.347082796151321 0 0 0
93 1 8.946668739524107 0.737908960046084 10.43420877999294 0 0 0
94 1 10.22476426047603 2.951635191226728 10.434208762586026 0 0 0
110 1 8.946668739524494 2.2137264705835906 12.524124717106671 0 0 0
78 1 11.502859740025986 3.689543953269045 8.347082800468524 0 0 0
67 1 5.112382259973846 5.903270162876819 8.34708280169518 0 0 0
68 1 6.390477740026045 8.116996391252233 8.347082795315846 0 0 0
71 1 7.668573259973845 5.903270162876819 8.34708280169518 0 0 0
83 1 3.8342867395241775 5.16536144504513 10.434208793304164 0 0 0
84 1 5.112382260475682 7.379087709273003 10.434208812875907 0 0 0
87 1 6.390477739524179 5.16536144504513 10.434208793304164 0 0 0
88 1 7.668573260475682 7.379087709273003 10.434208812875907 0 0 0
100 1 3.8342867395241598 6.641178956756134 12.524124708650092 0 0 0
103 1 5.112382260475538 4.42745272601181 12.524124709977714 0 0 0
104 1 6.39047773952416 6.641178956756134 12.52412470865009 0 0 0
107 1 7.668573260475539 4.42745272601181 12.524124709977714 0 0 0
72 1 8.946668740026045 8.116996391252233 8.347082795315846 0 0 0
75 1 10.224764259973846 5.903270162876819 8.34708280169518 0 0 0
91 1 8.94666873952418 5.16536144504513 10.434208793304164 0 0 0
92 1 10.224764260475684 7.379087709273003 10.434208812875907 0 0 0
108 1 8.94666873952416 6.641178956756134 12.52412470865009 0 0 0
111 1 10.224764260475537 4.42745272601181 12.524124709977714 0 0 0
76 1 11.502859740026043 8.116996391252233 8.347082795315847 0 0 0
79 1 12.780955259973846 5.903270162876819 8.34708280169518 0 0 0
80 1 14.059050740026043 8.116996391252233 8.347082795315846 0 0 0
95 1 11.502859739524178 5.16536144504513 10.434208793304165 0 0 0
96 1 12.78095526047568 7.379087709273003 10.434208812875909 0 0 0
99 1 2.556191260475537 4.42745272601181 12.524124709977714 0 0 0
112 1 11.502859739524158 6.641178956756134 12.524124708650092 0 0 0
113 1 2.5561912599740753 1.4758177570592674 14.611250716639978 0 0 0
114 1 3.834286740026135 3.689544018946654 14.611250717062465 0 0 0
117 1 5.112382259974075 1.475817757059268 14.611250716639978 0 0 0
118 1 6.390477740026135 3.689544018946654 14.611250717062465 0 0 0
121 1 7.668573259974076 1.4758177570592677 14.611250716639978 0 0 0
122 1 8.946668740026134 3.6895440189466546 14.611250717062465 0 0 0
125 1 10.224764259974076 1.4758177570592677 14.611250716639978 0 0 0
126 1 11.502859740026135 3.6895440189466537 14.611250717062465 0 0 0
115 1 5.112382259973522 5.903270241017868 14.611250688163379 0 0 0
116 1 6.390477740026337 8.116996487195424 14.611250685678717 0 0 0
119 1 7.668573259973522 5.903270241017869 14.611250688163379 0 0 0
120 1 8.946668740026338 8.116996487195424 14.611250685678717 0 0 0
123 1 10.224764259973522 5.903270241017869 14.611250688163379 0 0 0
124 1 11.502859740026334 8.116996487195424 14.611250685678717 0 0 0
127 1 12.78095525997352 5.903270241017869 14.611250688163379 0 0 0
128 1 14.059050740026334 8.116996487195424 14.611250685678717 0 0 0

Velocities

1 0 0 0
2 0 0 0
5 0 0 0
17 0 0 0
18 0 0 0
33 0 0 0
34 0 0 0
37 0 0 0
6 0 0 0
9 0 0 0
10 0 0 0
13 0 0 0
21 0 0 0
22 0 0 0
25 0 0 0
26 0 0 0
38 0 0 0
41 0 0 0
42 0 0 0
45 0 0 0
14 0 0 0
29 0 0 0
30 0 0 0
46 0 0 0
4 0 0 0
7 0 0 0
8 0 0 0
11 0 0 0
19 0 0 0
20 0 0 0
23 0 0 0
24 0 0 0
36 0 0 0
39 0 0 0
40 0 0 0
43 0 0 0
12 0 0 0
15 0 0 0
27 0 0 0
28 0 0 0
44 0 0 0
47 0 0 0
3 0 0 0
16 0 0 0
31 0 0 0
32 0 0 0
35 0 0 0
48 0 0 0
49 0 0 0
50 0 0 0
53 0 0 0
54 0 0 0
57 0 0 0
58 0 0 0
61 0 0 0
62 0 0 0
51 0 0 0
52 0 0 0
55 0 0 0
56 0 0 0
59 0 0 0
60 0 0 0
63 0 0 0
64 0 0 0
65 0 0 0
81 0 0 0
82 0 0 0
97 0 0 0
98 0 0 0
101 0 0 0
66 0 0 0
69 0 0 0
70 0 0 0
73 0 0 0
85 0 0 0
86 0 0 0
89 0 0 0
90 0 0 0
102 0 0 0
105 0 0 0
106 0 0 0
109 0 0 0
74 0 0 0
77 0 0 0
93 0 0 0
94 0 0 0
110 0 0 0
78 0 0 0
67 0 0 0
68 0 0 0
71 0 0 0
83 0 0 0
84 0 0 0
87 0 0 0
88 0 0 0
100 0 0 0
103 0 0 0
104 0 0 0
107 0 0 0
72 0 0 0
75 0 0 0
91 0 0 0
92 0 0 0
108 0 0 0
111 0 0 0
76 0 0 0
79 0 0 0
80 0 0 0
95 0 0 0
96 0 0 0
99 0 0 0
112 0 0 0
113 0 0 0
114 0 0 0
117 0 0 0
118 0 0 0
121 0 0 0
122 0 0 0
125 0 0 0
126 0 0 0
115 0 0 0
116 0 0 0
119 0 0 0
120 0 0 0
123 0 0 0
124 0 0 0
127 0 0 0
128 0 0 0
