LAMMPS data file via write_data, version 22 Jul 2025, timestep = 4, units = metal

128 atoms
3 atom types

0 10.224764 xlo xhi
0 8.854905 ylo yhi
0 16.69697 zlo zhi
5.112382 0 0 xy xz yz

Masses

1 63.55
2 63.55
3 63.55

Atoms # atomic

1 1 2.61211945638227e-07 2.023228804480072e-07 0.0021359184564322753 0 0 0
2 1 1.2780957387883058 2.2137264629347517 0.0021358946623513974 0 0 0
5 1 2.556191261211946 2.0232288067813346e-07 0.002135918456432657 0 0 0
17 1 1.2780957385817826 0.737908948220702 2.0907256287745684 0 0 0
18 1 2.5561912614182765 2.951635189752791 2.0907256345573626 0 0 0
33 1 2.5561912608845185 1.47581769835547 4.176412314718806 0 0 0
6 1 3.8342867387883057 2.213726462934751 0.0021358946623508375 0 0 0
9 1 5.112382261211946 2.0232288039753595e-07 0.00213591845643272 0 0 0
10 1 6.390477738788306 2.2137264629347517 0.002135894662351071 0 0 0
13 1 7.668573261211946 2.0232288080110803e-07 0.0021359184564328734 0 0 0
21 1 3.834286738581783 0.737908948220702 2.0907256287745684 0 0 0
22 1 5.1123822614182775 2.951635189752791 2.0907256345573626 0 0 0
25 1 6.390477738581782 0.7379089482207022 2.090725628774569 0 0 0
26 1 7.668573261418277 2.9516351897527904 2.0907256345573626 0 0 0
34 1 3.834286739115444 3.689543967074061 4.176412318744369 0 0 0
37 1 5.112382260884519 1.4758176983554705 4.176412314718806 0 0 0
38 1 6.390477739115443 3.689543967074061 4.176412318744369 0 0 0
41 1 7.668573260884519 1.47581769835547 4.176412314718806 0 0 0
14 1 8.946668738788306 2.213726462934751 0.0021358946623507447 0 0 0
29 1 8.946668738581783 0.7379089482207017 2.0907256287745684 0 0 0
30 1 10.224764261418276 2.951635189752791 2.090725634557362 0 0 0
42 1 8.946668739115445 3.6895439670740604 4.176412318744369 0 0 0
45 1 10.22476426088452 1.4758176983554705 4.176412314718806 0 0 0
46 1 11.502859739115443 3.689543967074061 4.176412318744369 0 0 0
4 1 3.834286738788017 6.641178948558514 0.0021359375674231103 0 0 0
7 1 5.112382261211809 4.427452710684525 0.002135905053327241 0 0 0
8 1 6.390477738788016 6.641178948558514 0.002135937567423679 0 0 0
11 1 7.66857326121181 4.427452710684524 0.0021359050533279293 0 0 0
19 1 3.8342867385817563 5.165361459399326 2.0907256130907883 0 0 0
20 1 5.1123822614181265 7.379087707074942 2.0907256049553276 0 0 0
23 1 6.390477738581756 5.165361459399326 2.0907256130907883 0 0 0
24 1 7.668573261418127 7.379087707074942 2.0907256049553276 0 0 0
35 1 5.112382260884525 5.90327017730886 4.176412300056064 0 0 0
36 1 6.39047773911547 8.116996412175881 4.1764123060095875 0 0 0
39 1 7.668573260884523 5.90327017730886 4.176412300056064 0 0 0
12 1 8.946668738788018 6.641178948558514 0.0021359375674238554 0 0 0
15 1 10.224764261211808 4.427452710684525 0.0021359050533280607 0 0 0
27 1 8.946668738581756 5.165361459399326 2.0907256130907883 0 0 0
28 1 10.224764261418127 7.379087707074941 2.090725604955328 0 0 0
40 1 8.94666873911547 8.116996412175881 4.1764123060095875 0 0 0
43 1 10.224764260884523 5.903270177308859 4.176412300056064 0 0 0
3 1 2.5561912612118074 4.427452710684525 0.0021359050533278855 0 0 0
16 1 11.502859738788018 6.641178948558514 0.0021359375674235843 0 0 0
31 1 11.502859738581758 5.165361459399326 2.0907256130907887 0 0 0
32 1 12.780955261418129 7.379087707074942 2.090725604955328 0 0 0
44 1 11.502859739115468 8.116996412175881 4.1764123060095875 0 0 0
47 1 12.780955260884525 5.903270177308859 4.176412300056064 0 0 0
48 1 14.05905073911547 8.116996412175881 4.176412306009587 0 0 0
49 1 1.2780957391154613 0.7379090206564826 6.259193689975931 0 0 0
50 1 2.556191260884509 2.9516352950393374 6.259193666640481 0 0 0
53 1 3.8342867391154614 0.7379090206564825 6.259193689975931 0 0 0
54 1 5.112382260884508 2.9516352950393374 6.259193666640481 0 0 0
57 1 6.390477739115462 0.7379090206564826 6.259193689975931 0 0 0
58 1 7.668573260884509 2.951635295039337 6.259193666640482 0 0 0
61 1 8.94666873911546 0.7379090206564822 6.259193689975931 0 0 0
62 1 10.224764260884509 2.951635295039337 6.259193666640482 0 0 0
51 1 3.8342867391154734 5.165361570359525 6.259193694684662 0 0 0
52 1 5.112382260884531 7.379087806993047 6.259193709169815 0 0 0
55 1 6.3904777391154735 5.165361570359525 6.259193694684662 0 0 0
56 1 7.668573260884532 7.379087806993048 6.259193709169816 0 0 0
59 1 8.946668739115474 5.165361570359525 6.259193694684662 0 0 0
60 1 10.224764260884534 7.379087806993048 6.259193709169815 0 0 0
63 1 11.502859739115474 5.165361570359525 6.259193694684662 0 0 0
64 1 12.780955260884532 7.379087806993047 6.259193709169815 0 0 0
65 1 2.556191261418303 1.4758177425059915 8.344880376133515 0 0 0
81 1 2.612119567840998e-07 1.9939835774192476e-07 10.433470078598468 0 0 0
82 1 1.2780957387883016 2.213726465854605 10.433470095686392 0 0 0
85 1 2.5561912612119575 1.9939835841550383e-07 10.433470078598468 0 0 0
97 1 1.2780957390855041 0.7379089387498732 12.522015737946198 0 0 0
98 1 2.556191260914569 2.951635200027218 12.522015752261662 0 0 0
66 1 3.834286738581731 3.6895440006400153 8.344880347693069 0 0 0
69 1 5.112382261418303 1.4758177425059915 8.344880376133515 0 0 0
70 1 6.39047773858173 3.6895440006400158 8.344880347693069 0 0 0
73 1 7.668573261418302 1.4758177425059922 8.344880376133515 0 0 0
86 1 3.8342867387883013 2.213726465854605 10.433470095686392 0 0 0
89 1 5.112382261211956 1.9939835735157592e-07 10.433470078598468 0 0 0
90 1 6.390477738788301 2.213726465854605 10.433470095686392 0 0 0
93 1 7.668573261211957 1.9939835786430254e-07 10.433470078598468 0 0 0
101 1 3.834286739085504 0.7379089387498732 12.522015737946198 0 0 0
102 1 5.112382260914569 2.951635200027218 12.522015752261662 0 0 0
105 1 6.3904777390855045 0.737908938749873 12.522015737946198 0 0 0
106 1 7.668573260914569 2.951635200027218 12.522015752261662 0 0 0
74 1 8.946668738581732 3.6895440006400158 8.344880347693069 0 0 0
77 1 10.224764261418304 1.4758177425059922 8.344880376133515 0 0 0
94 1 8.9466687387883 2.213726465854605 10.433470095686392 0 0 0
109 1 8.946668739085505 0.7379089387498728 12.522015737946198 0 0 0
110 1 10.224764260914569 2.9516352000272175 12.522015752261662 0 0 0
78 1 11.50285973858173 3.6895440006400158 8.344880347693069 0 0 0
67 1 5.112382261418137 5.903270223862664 8.344880398445923 0 0 0
68 1 6.390477738581867 8.116996452586987 8.34488039634953 0 0 0
71 1 7.668573261418137 5.903270223862664 8.344880398445923 0 0 0
84 1 3.834286738788017 6.641178944263652 10.433470074885369 0 0 0
87 1 5.112382261211797 4.427452720149982 10.433470095090446 0 0 0
88 1 6.390477738788016 6.641178944263652 10.43347007488537 0 0 0
91 1 7.668573261211797 4.427452720149981 10.433470095090446 0 0 0
99 1 3.8342867390854316 5.165361471882453 12.522015729780154 0 0 0
100 1 5.112382260914424 7.379087715610973 12.522015715326376 0 0 0
103 1 6.390477739085432 5.165361471882453 12.522015729780154 0 0 0
104 1 7.668573260914424 7.379087715610973 12.522015715326376 0 0 0
72 1 8.946668738581867 8.116996452586987 8.344880396349529 0 0 0
75 1 10.224764261418137 5.903270223862664 8.344880398445923 0 0 0
92 1 8.946668738788018 6.641178944263652 10.43347007488537 0 0 0
95 1 10.224764261211797 4.427452720149982 10.433470095090446 0 0 0
107 1 8.946668739085432 5.165361471882453 12.522015729780154 0 0 0
108 1 10.224764260914423 7.379087715610973 12.522015715326376 0 0 0
76 1 11.502859738581868 8.116996452586987 8.344880396349529 0 0 0
79 1 12.780955261418136 5.903270223862664 8.344880398445923 0 0 0
80 1 14.059050738581867 8.116996452586987 8.344880396349529 0 0 0
83 1 2.556191261211796 4.427452720149982 10.433470095090446 0 0 0
96 1 11.502859738788018 6.641178944263653 10.43347007488537 0 0 0
111 1 11.502859739085432 5.165361471882452 12.522015729780154 0 0 0
112 1 12.780955260914425 7.379087715610973 12.522015715326376 0 0 0
113 1 2.5561912609146047 1.4758177156053494 14.610560260173628 0 0 0
114 1 3.8342867390854334 3.6895439888146364 14.610560234692125 0 0 0
117 1 5.112382260914606 1.475817715605349 14.610560260173628 0 0 0
118 1 6.390477739085435 3.6895439888146364 14.610560234692125 0 0 0
121 1 7.668573260914606 1.4758177156053494 14.610560260173626 0 0 0
122 1 8.946668739085432 3.689543988814637 14.610560234692125 0 0 0
125 1 10.224764260914606 1.4758177156053491 14.610560260173626 0 0 0
126 1 11.502859739085435 3.6895439888146364 14.610560234692125 0 0 0
115 1 5.112382260914422 5.90327021342752 14.610560286279929 0 0 0
116 1 6.390477739085538 8.116996429708616 14.610560283539913 0 0 0
119 1 7.668573260914421 5.903270213427521 14.61056028627993 0 0 0
120 1 8.946668739085538 8.116996429708616 14.610560283539913 0 0 0
123 1 10.224764260914421 5.90327021342752 14.610560286279929 0 0 0
124 1 11.502859739085537 8.116996429708616 14.610560283539913 0 0 0
127 1 12.780955260914421 5.90327021342752 14.610560286279929 0 0 0
128 1 14.059050739085539 8.116996429708616 14.610560283539913 0 0 0

Velocities

1 0 0 0
2 0 0 0
5 0 0 0
17 0 0 0
18 0 0 0
33 0 0 0
6 0 0 0
9 0 0 0
10 0 0 0
13 0 0 0
21 0 0 0
22 0 0 0
25 0 0 0
26 0 0 0
34 0 0 0
37 0 0 0
38 0 0 0
41 0 0 0
14 0 0 0
29 0 0 0
30 0 0 0
42 0 0 0
45 0 0 0
46 0 0 0
4 0 0 0
7 0 0 0
8 0 0 0
11 0 0 0
19 0 0 0
20 0 0 0
23 0 0 0
24 0 0 0
35 0 0 0
36 0 0 0
39 0 0 0
12 0 0 0
15 0 0 0
27 0 0 0
28 0 0 0
40 0 0 0
43 0 0 0
3 0 0 0
16 0 0 0
31 0 0 0
32 0 0 0
44 0 0 0
47 0 0 0
48 0 0 0
49 0 0 0
50 0 0 0
53 0 0 0
54 0 0 0
57 0 0 0
58 0 0 0
61 0 0 0
62 0 0 0
51 0 0 0
52 0 0 0
55 0 0 0
56 0 0 0
59 0 0 0
60 0 0 0
63 0 0 0
64 0 0 0
65 0 0 0
81 0 0 0
82 0 0 0
85 0 0 0
97 0 0 0
98 0 0 0
66 0 0 0
69 0 0 0
70 0 0 0
73 0 0 0
86 0 0 0
89 0 0 0
90 0 0 0
93 0 0 0
101 0 0 0
102 0 0 0
105 0 0 0
106 0 0 0
74 0 0 0
77 0 0 0
94 0 0 0
109 0 0 0
110 0 0 0
78 0 0 0
67 0 0 0
68 0 0 0
71 0 0 0
84 0 0 0
87 0 0 0
88 0 0 0
91 0 0 0
99 0 0 0
100 0 0 0
103 0 0 0
104 0 0 0
72 0 0 0
75 0 0 0
92 0 0 0
95 0 0 0
107 0 0 0
108 0 0 0
76 0 0 0
79 0 0 0
80 0 0 0
83 0 0 0
96 0 0 0
111 0 0 0
112 0 0 0
113 0 0 0
114 0 0 0
117 0 0 0
118 0 0 0
121 0 0 0
122 0 0 0
125 0 0 0
126 0 0 0
115 0 0 0
116 0 0 0
119 0 0 0
120 0 0 0
123 0 0 0
124 0 0 0
127 0 0 0
128 0 0 0
