LAMMPS data file via write_data, version 22 Jul 2025, timestep = 5, units = metal

128 atoms
3 atom types

0 10.224764 xlo xhi
0 8.854905 ylo yhi
0 16.69697 zlo zhi
5.112382 0 0 xy xz yz

Masses

1 63.55
2 63.55
3 63.55

Atoms # atomic

1 1 2.4884847193977577e-07 2.2350040581452242e-07 16.696938405648158 0 0 -1
2 1 1.2780957511516162 2.213726465484855 16.696938410268807 0 0 -1
5 1 2.556191248848472 2.2350040517936767e-07 16.696938405648158 0 0 -1
17 1 2.556191248632607 1.4758177581175105 2.087121085864072 0 0 0
33 1 2.488484858392033e-07 2.2350047541848204e-07 4.174273924560201 0 0 0
34 1 1.278095751151602 2.21372646548485 4.174273919939367 0 0 0
37 1 2.556191248848486 2.2350047557217431e-07 4.1742739245602 0 0 0
6 1 3.834286751151616 2.2137264654848545 16.696938410268807 0 0 -1
9 1 5.112382248848472 2.2350040533381213e-07 16.696938405648158 0 0 -1
10 1 6.390477751151616 2.213726465484855 16.696938410268807 0 0 -1
13 1 7.668573248848474 2.2350040520539294e-07 16.696938405648158 0 0 -1
18 1 3.834286751367431 3.689543999188853 2.0871210858640525 0 0 0
21 1 5.112382248632608 1.4758177581175107 2.0871210858640725 0 0 0
22 1 6.390477751367431 3.6895439991888526 2.087121085864052 0 0 0
25 1 7.668573248632608 1.4758177581175105 2.0871210858640725 0 0 0
38 1 3.834286751151602 2.21372646548485 4.174273919939367 0 0 0
41 1 5.112382248848486 2.2350047535188643e-07 4.1742739245602 0 0 0
42 1 6.390477751151603 2.2137264654848496 4.174273919939367 0 0 0
45 1 7.668573248848486 2.235004748454728e-07 4.1742739245602 0 0 0
14 1 8.946668751151616 2.213726465484855 16.696938410268807 0 0 -1
26 1 8.946668751367431 3.689543999188853 2.087121085864052 0 0 0
29 1 10.224764248632606 1.4758177581175111 2.0871210858640725 0 0 0
46 1 8.946668751151602 2.2137264654848496 4.174273919939367 0 0 0
30 1 11.502859751367431 3.689543999188853 2.087121085864053 0 0 0
4 1 3.834286751151497 6.641178964764367 16.69693840748756 0 0 -1
7 1 5.112382248848433 4.427452711328792 16.696938400199244 0 0 -1
8 1 6.390477751151497 6.641178964764367 16.69693840748756 0 0 -1
11 1 7.668573248848433 4.427452711328792 16.696938400199244 0 0 -1
19 1 5.112382248632489 5.903270263785492 2.087121085864061 0 0 0
20 1 6.390477751367518 8.116996496493467 2.087121085864093 0 0 0
23 1 7.668573248632489 5.903270263785492 2.0871210858640614 0 0 0
36 1 3.834286751151483 6.641178964764344 4.174273922720663 0 0 0
39 1 5.112382248848445 4.4274527113288 4.1742739300090195 0 0 0
40 1 6.390477751151483 6.641178964764344 4.174273922720663 0 0 0
43 1 7.668573248848445 4.4274527113288 4.1742739300090195 0 0 0
12 1 8.946668751151497 6.641178964764367 16.69693840748756 0 0 -1
15 1 10.224764248848434 4.427452711328792 16.696938400199244 0 0 -1
24 1 8.946668751367516 8.116996496493467 2.0871210858640925 0 0 0
27 1 10.22476424863249 5.903270263785493 2.087121085864062 0 0 0
44 1 8.946668751151485 6.641178964764344 4.174273922720663 0 0 0
47 1 10.224764248848444 4.4274527113288 4.1742739300090195 0 0 0
3 1 2.5561912488484353 4.427452711328792 16.696938400199244 0 0 -1
16 1 11.502859751151497 6.641178964764367 16.69693840748756 0 0 -1
28 1 11.502859751367517 8.116996496493467 2.0871210858640925 0 0 0
31 1 12.78095524863249 5.903270263785493 2.087121085864062 0 0 0
32 1 14.059050751367518 8.116996496493467 2.0871210858640925 0 0 0
35 1 2.556191248848444 4.4274527113288 4.17427393000902 0 0 0
48 1 11.502859751151483 6.641178964764344 4.174273922720663 0 0 0
49 1 1.278095751153949 0.7379089451205028 6.264245973454378 0 0 0
50 1 2.5561912488460905 2.9516352099327294 6.264245978386472 0 0 0
53 1 3.834286751153949 0.7379089451205032 6.264245973454378 0 0 0
54 1 5.112382248846091 2.9516352099327294 6.264245978386472 0 0 0
57 1 6.3904777511539494 0.737908945120503 6.264245973454378 0 0 0
58 1 7.668573248846091 2.9516352099327294 6.264245978386473 0 0 0
61 1 8.946668751153949 0.7379089451205026 6.264245973454378 0 0 0
62 1 10.22476424884609 2.9516352099327294 6.264245978386473 0 0 0
51 1 3.834286751153919 5.165361449644813 6.2642459753627255 0 0 0
52 1 5.112382248846026 7.379087700729826 6.264245980462945 0 0 0
55 1 6.390477751153919 5.165361449644813 6.264245975362726 0 0 0
56 1 7.668573248846027 7.379087700729827 6.2642459804629445 0 0 0
59 1 8.946668751153918 5.165361449644813 6.264245975362726 0 0 0
60 1 10.224764248846029 7.379087700729827 6.264245980462945 0 0 0
63 1 11.50285975115392 5.165361449644813 6.2642459753627255 0 0 0
64 1 12.780955248846027 7.379087700729827 6.2642459804629445 0 0 0
65 1 2.556191248699421 1.4758176902842384 8.351374053311167 0 0 0
81 1 1.2780957512289135 0.737909036561649 10.43560608134352 0 0 0
82 1 2.556191248771079 2.9516352783559796 10.435606081343687 0 0 0
97 1 2.556191248699434 1.4758176902841822 12.519838281800634 0 0 0
66 1 3.8342867513005787 3.6895439301999846 8.351374042129011 0 0 0
69 1 5.112382248699421 1.4758176902842388 8.351374053311167 0 0 0
70 1 6.390477751300578 3.6895439301999837 8.351374042129013 0 0 0
73 1 7.668573248699421 1.4758176902842388 8.351374053311167 0 0 0
85 1 3.8342867512289143 0.7379090365616496 10.435606081343519 0 0 0
86 1 5.1123822487710795 2.95163527835598 10.435606081343687 0 0 0
89 1 6.3904777512289135 0.7379090365616495 10.435606081343519 0 0 0
90 1 7.6685732487710805 2.9516352783559796 10.435606081343687 0 0 0
98 1 3.8342867513005654 3.6895439302001027 12.519838292983064 0 0 0
101 1 5.112382248699435 1.4758176902841824 12.519838281800636 0 0 0
102 1 6.390477751300566 3.689543930200103 12.519838292983064 0 0 0
105 1 7.668573248699435 1.4758176902841817 12.519838281800634 0 0 0
74 1 8.94666875130058 3.6895439301999837 8.351374042129013 0 0 0
77 1 10.224764248699419 1.4758176902842388 8.351374053311167 0 0 0
93 1 8.946668751228913 0.7379090365616492 10.435606081343519 0 0 0
94 1 10.22476424877108 2.9516352783559796 10.435606081343687 0 0 0
106 1 8.946668751300566 3.689543930200103 12.519838292983065 0 0 0
109 1 10.224764248699435 1.4758176902841817 12.519838281800634 0 0 0
78 1 11.502859751300578 3.6895439301999846 8.351374042129011 0 0 0
110 1 11.502859751300566 3.6895439302001027 12.519838292983064 0 0 0
67 1 5.112382248699437 5.9032701983195075 8.351374045424974 0 0 0
68 1 6.390477751300539 8.116996438079845 8.351374042661227 0 0 0
71 1 7.668573248699437 5.9032701983195075 8.351374045424974 0 0 0
83 1 3.8342867512289107 5.165361544841164 10.435606081343535 0 0 0
84 1 5.112382248771085 7.379087767876016 10.435606081343645 0 0 0
87 1 6.390477751228911 5.165361544841163 10.435606081343535 0 0 0
88 1 7.668573248771084 7.379087767876016 10.435606081343646 0 0 0
99 1 5.11238224869945 5.903270198319477 12.519838289686797 0 0 0
100 1 6.3904777513005255 8.116996438079914 12.519838292450716 0 0 0
103 1 7.668573248699451 5.903270198319476 12.519838289686797 0 0 0
72 1 8.946668751300539 8.116996438079845 8.351374042661227 0 0 0
75 1 10.224764248699437 5.9032701983195075 8.351374045424974 0 0 0
91 1 8.94666875122891 5.165361544841163 10.435606081343535 0 0 0
92 1 10.224764248771084 7.379087767876016 10.435606081343646 0 0 0
104 1 8.946668751300527 8.116996438079914 12.519838292450718 0 0 0
107 1 10.22476424869945 5.903270198319476 12.519838289686797 0 0 0
76 1 11.502859751300539 8.116996438079845 8.351374042661227 0 0 0
79 1 12.780955248699438 5.9032701983195075 8.351374045424974 0 0 0
80 1 14.05905075130054 8.116996438079845 8.351374042661227 0 0 0
95 1 11.502859751228911 5.165361544841164 10.435606081343535 0 0 0
96 1 12.780955248771082 7.379087767876015 10.435606081343646 0 0 0
108 1 11.502859751300527 8.116996438079914 12.519838292450716 0 0 0
111 1 12.780955248699453 5.903270198319476 12.519838289686797 0 0 0
112 1 14.059050751300525 8.116996438079914 12.519838292450716 0 0 0
113 1 1.278095751153949 0.7379089451204159 14.606966194017742 0 0 0
114 1 2.556191248846091 2.951635209932733 14.606966189085824 0 0 0
117 1 3.8342867511539493 0.7379089451204159 14.606966194017744 0 0 0
118 1 5.112382248846091 2.951635209932733 14.606966189085824 0 0 0
121 1 6.3904777511539494 0.7379089451204165 14.606966194017742 0 0 0
122 1 7.668573248846091 2.951635209932733 14.606966189085824 0 0 0
125 1 8.946668751153949 0.7379089451204164 14.606966194017742 0 0 0
126 1 10.22476424884609 2.951635209932733 14.606966189085824 0 0 0
115 1 3.834286751153919 5.165361449644859 14.606966192109345 0 0 0
116 1 5.112382248846027 7.379087700729836 14.60696618700929 0 0 0
119 1 6.390477751153919 5.165361449644859 14.606966192109345 0 0 0
120 1 7.668573248846027 7.379087700729835 14.60696618700929 0 0 0
123 1 8.946668751153918 5.165361449644859 14.606966192109345 0 0 0
124 1 10.224764248846029 7.379087700729836 14.60696618700929 0 0 0
127 1 11.50285975115392 5.165361449644859 14.606966192109345 0 0 0
128 1 12.780955248846027 7.379087700729836 14.60696618700929 0 0 0

Velocities

1 0 0 0
2 0 0 0
5 0 0 0
17 0 0 0
33 0 0 0
34 0 0 0
37 0 0 0
6 0 0 0
9 0 0 0
10 0 0 0
13 0 0 0
18 0 0 0
21 0 0 0
22 0 0 0
25 0 0 0
38 0 0 0
41 0 0 0
42 0 0 0
45 0 0 0
14 0 0 0
26 0 0 0
29 0 0 0
46 0 0 0
30 0 0 0
4 0 0 0
7 0 0 0
8 0 0 0
11 0 0 0
19 0 0 0
20 0 0 0
23 0 0 0
36 0 0 0
39 0 0 0
40 0 0 0
43 0 0 0
12 0 0 0
15 0 0 0
24 0 0 0
27 0 0 0
44 0 0 0
47 0 0 0
3 0 0 0
16 0 0 0
28 0 0 0
31 0 0 0
32 0 0 0
35 0 0 0
48 0 0 0
49 0 0 0
50 0 0 0
53 0 0 0
54 0 0 0
57 0 0 0
58 0 0 0
61 0 0 0
62 0 0 0
51 0 0 0
52 0 0 0
55 0 0 0
56 0 0 0
59 0 0 0
60 0 0 0
63 0 0 0
64 0 0 0
65 0 0 0
81 0 0 0
82 0 0 0
97 0 0 0
66 0 0 0
69 0 0 0
70 0 0 0
73 0 0 0
85 0 0 0
86 0 0 0
89 0 0 0
90 0 0 0
98 0 0 0
101 0 0 0
102 0 0 0
105 0 0 0
74 0 0 0
77 0 0 0
93 0 0 0
94 0 0 0
106 0 0 0
109 0 0 0
78 0 0 0
110 0 0 0
67 0 0 0
68 0 0 0
71 0 0 0
83 0 0 0
84 0 0 0
87 0 0 0
88 0 0 0
99 0 0 0
100 0 0 0
103 0 0 0
72 0 0 0
75 0 0 0
91 0 0 0
92 0 0 0
104 0 0 0
107 0 0 0
76 0 0 0
79 0 0 0
80 0 0 0
95 0 0 0
96 0 0 0
108 0 0 0
111 0 0 0
112 0 0 0
113 0 0 0
114 0 0 0
117 0 0 0
118 0 0 0
121 0 0 0
122 0 0 0
125 0 0 0
126 0 0 0
115 0 0 0
116 0 0 0
119 0 0 0
120 0 0 0
123 0 0 0
124 0 0 0
127 0 0 0
128 0 0 0
