LAMMPS data file via write_data, version 22 Jul 2025, timestep = 2, units = metal

128 atoms
3 atom types

0 10.224764 xlo xhi
0 8.854905 ylo yhi
0 16.69697 zlo zhi
5.112382 0 0 xy xz yz

Masses

1 63.55
2 63.55
3 63.55

Atoms # atomic

1 1 2.485643056433105e-07 2.254830443966127e-07 16.696969773274855 0 0 -1
2 1 1.278095751435896 2.2137263009215378 16.696969719403416 0 0 -1
5 1 2.5561912485643052 2.2548304369100715e-07 16.696969773274855 0 0 -1
17 1 1.278095751984396 0.7379088445277774 2.0885488812558113 0 0 0
18 1 2.5561912480156215 2.9516352337211478 2.088548869606202 0 0 0
33 1 2.5561912486839558 1.4758177188836572 4.174242234343211 0 0 0
6 1 3.8342867514358963 2.213726300921538 16.696969719403416 0 0 -1
9 1 5.112382248564305 2.2548304405257108e-07 16.696969773274855 0 0 -1
10 1 6.3904777514358955 2.2137263009215378 16.696969719403416 0 0 -1
13 1 7.668573248564305 2.2548304376942782e-07 16.696969773274855 0 0 -1
21 1 3.8342867519843957 0.737908844527777 2.0885488812558113 0 0 0
22 1 5.1123822480156225 2.951635233721148 2.0885488696062016 0 0 0
25 1 6.390477751984396 0.7379088445277769 2.0885488812558113 0 0 0
26 1 7.668573248015622 2.951635233721148 2.0885488696062016 0 0 0
34 1 3.8342867513160437 3.6895440867254066 4.1742422343433825 0 0 0
37 1 5.112382248683955 1.4758177188836579 4.174242234343211 0 0 0
38 1 6.390477751316043 3.6895440867254066 4.1742422343433825 0 0 0
41 1 7.6685732486839555 1.4758177188836574 4.174242234343211 0 0 0
14 1 8.946668751435896 2.2137263009215378 16.696969719403416 0 0 -1
29 1 8.946668751984395 0.737908844527777 2.0885488812558113 0 0 0
30 1 10.224764248015623 2.9516352337211478 2.088548869606202 0 0 0
42 1 8.946668751316043 3.6895440867254066 4.1742422343433825 0 0 0
45 1 10.224764248683956 1.4758177188836574 4.174242234343211 0 0 0
46 1 11.502859751316043 3.6895440867254066 4.1742422343433825 0 0 0
4 1 3.834286751435717 6.641178840994752 16.69696973703089 0 0 -1
7 1 5.1123822485641455 4.427452792016616 16.69696972187742 0 0 -1
8 1 6.390477751435718 6.641178840994752 16.69696973703089 0 0 -1
11 1 7.668573248564146 4.427452792016616 16.69696972187742 0 0 -1
19 1 3.8342867519844535 5.16536133352984 2.088548885102146 0 0 0
20 1 5.112382248015469 7.37908774566611 2.0885488841758173 0 0 0
23 1 6.390477751984453 5.16536133352984 2.0885488851021465 0 0 0
24 1 7.668573248015469 7.37908774566611 2.0885488841758173 0 0 0
35 1 5.11238224868384 5.9032701490111625 4.174242234343264 0 0 0
36 1 6.3904777513161415 8.116996653990439 4.174242234343385 0 0 0
39 1 7.66857324868384 5.9032701490111625 4.174242234343264 0 0 0
12 1 8.946668751435718 6.641178840994752 16.69696973703089 0 0 -1
15 1 10.224764248564146 4.427452792016616 16.69696972187742 0 0 -1
27 1 8.946668751984452 5.165361333529839 2.0885488851021465 0 0 0
28 1 10.22476424801547 7.37908774566611 2.0885488841758173 0 0 0
40 1 8.946668751316139 8.116996653990439 4.174242234343385 0 0 0
43 1 10.224764248683844 5.9032701490111625 4.174242234343264 0 0 0
3 1 2.5561912485641467 4.427452792016616 16.69696972187742 0 0 -1
16 1 11.502859751435718 6.641178840994752 16.69696973703089 0 0 -1
31 1 11.50285975198445 5.16536133352984 2.0885488851021465 0 0 0
32 1 12.78095524801547 7.37908774566611 2.0885488841758173 0 0 0
44 1 11.50285975131614 8.116996653990439 4.174242234343385 0 0 0
47 1 12.780955248683842 5.9032701490111625 4.174242234343264 0 0 0
48 1 14.05905075131614 8.116996653990439 4.174242234343384 0 0 0
49 1 1.278095751984492 0.7379088445277923 6.25993614650433 0 0 0
50 1 2.556191248015527 2.9516352337210416 6.2599361581542095 0 0 0
53 1 3.8342867519844903 0.7379088445277923 6.25993614650433 0 0 0
54 1 5.112382248015527 2.951635233721042 6.2599361581542095 0 0 0
57 1 6.390477751984491 0.7379088445277924 6.25993614650433 0 0 0
58 1 7.6685732480155275 2.951635233721042 6.2599361581542095 0 0 0
61 1 8.94666875198449 0.7379088445277924 6.25993614650433 0 0 0
62 1 10.224764248015527 2.9516352337210416 6.2599361581542095 0 0 0
51 1 3.834286751984547 5.165361333530005 6.2599361426574385 0 0 0
52 1 5.112382248015374 7.379087745665873 6.259936143584307 0 0 0
55 1 6.390477751984547 5.165361333530005 6.2599361426574385 0 0 0
56 1 7.668573248015374 7.379087745665873 6.259936143584307 0 0 0
59 1 8.946668751984546 5.165361333530005 6.2599361426574385 0 0 0
60 1 10.224764248015374 7.379087745665873 6.259936143584307 0 0 0
63 1 11.502859751984548 5.1653613335300035 6.2599361426574385 0 0 0
64 1 12.780955248015374 7.379087745665873 6.259936143584307 0 0 0
65 1 2.4856430566322076e-07 2.254832111950409e-07 8.34848470251855 0 0 0
66 1 1.278095751435896 2.21372630092147 8.348484756389405 0 0 0
69 1 2.5561912485643052 2.254832110858824e-07 8.34848470251855 0 0 0
81 1 2.556191248015671 1.47581771150809 10.437033828077494 0 0 0
97 1 1.2780957513160587 0.7379088766144362 12.522727234343275 0 0 0
98 1 2.556191248683948 2.951635342784807 12.52272723434324 0 0 0
70 1 3.834286751435896 2.2137263009214703 8.348484756389405 0 0 0
73 1 5.1123822485643045 2.254832113615189e-07 8.34848470251855 0 0 0
74 1 6.3904777514358955 2.21372630092147 8.348484756389405 0 0 0
77 1 7.668573248564306 2.25483211655712e-07 8.34848470251855 0 0 0
82 1 3.834286751984374 3.689544131555127 10.437033922259342 0 0 0
85 1 5.112382248015672 1.4758177115080897 10.437033828077492 0 0 0
86 1 6.390477751984374 3.689544131555127 10.437033922259342 0 0 0
89 1 7.668573248015671 1.47581771150809 10.437033828077492 0 0 0
101 1 3.8342867513160575 0.7379088766144366 12.522727234343275 0 0 0
102 1 5.112382248683949 2.9516353427848068 12.52272723434324 0 0 0
105 1 6.39047775131606 0.7379088766144364 12.522727234343275 0 0 0
106 1 7.668573248683948 2.9516353427848063 12.52272723434324 0 0 0
78 1 8.946668751435896 2.2137263009214703 8.348484756389405 0 0 0
90 1 8.946668751984374 3.6895441315551265 10.437033922259342 0 0 0
93 1 10.224764248015674 1.475817711508089 10.437033828077492 0 0 0
109 1 8.946668751316057 0.737908876614436 12.522727234343275 0 0 0
110 1 10.22476424868395 2.9516353427848068 12.52272723434324 0 0 0
94 1 11.502859751984374 3.689544131555127 10.437033922259342 0 0 0
68 1 3.8342867514357173 6.641178840994481 8.348484738762572 0 0 0
71 1 5.112382248564146 4.427452792016783 8.348484753915884 0 0 0
72 1 6.390477751435718 6.641178840994482 8.348484738762572 0 0 0
75 1 7.6685732485641465 4.427452792016783 8.348484753915884 0 0 0
83 1 5.1123822480154715 5.903270200200665 10.437033833087613 0 0 0
84 1 6.39047775198449 8.116996647607357 10.437033936715576 0 0 0
87 1 7.6685732480154725 5.903270200200665 10.437033833087613 0 0 0
99 1 3.83428675131614 5.165361300714223 12.522727234343458 0 0 0
100 1 5.112382248683841 7.379087855811565 12.522727234343273 0 0 0
103 1 6.390477751316141 5.165361300714223 12.522727234343458 0 0 0
104 1 7.66857324868384 7.379087855811564 12.522727234343272 0 0 0
76 1 8.946668751435718 6.641178840994482 8.348484738762572 0 0 0
79 1 10.224764248564146 4.427452792016783 8.348484753915884 0 0 0
88 1 8.94666875198449 8.116996647607357 10.437033936715578 0 0 0
91 1 10.224764248015472 5.903270200200665 10.437033833087614 0 0 0
107 1 8.946668751316139 5.165361300714222 12.522727234343458 0 0 0
108 1 10.22476424868384 7.379087855811564 12.522727234343273 0 0 0
67 1 2.5561912485641485 4.427452792016783 8.348484753915884 0 0 0
80 1 11.502859751435718 6.641178840994481 8.348484738762572 0 0 0
92 1 11.50285975198449 8.116996647607355 10.437033936715578 0 0 0
95 1 12.78095524801547 5.903270200200665 10.437033833087613 0 0 0
96 1 14.05905075198449 8.116996647607355 10.437033936715578 0 0 0
111 1 11.50285975131614 5.165361300714222 12.522727234343458 0 0 0
112 1 12.78095524868384 7.379087855811565 12.522727234343273 0 0 0
113 1 2.5561912480155766 1.475817711508267 14.608421199682793 0 0 0
114 1 3.834286751984469 3.689544131555124 14.608421105500918 0 0 0
117 1 5.112382248015578 1.4758177115082667 14.608421199682793 0 0 0
118 1 6.390477751984468 3.6895441315551234 14.608421105500918 0 0 0
121 1 7.668573248015576 1.4758177115082667 14.608421199682793 0 0 0
122 1 8.946668751984467 3.6895441315551234 14.608421105500918 0 0 0
125 1 10.224764248015576 1.4758177115082671 14.608421199682793 0 0 0
126 1 11.502859751984468 3.689544131555123 14.608421105500918 0 0 0
115 1 5.112382248015377 5.903270200200979 14.608421194672403 0 0 0
116 1 6.3904777519845855 8.116996647607204 14.608421091044123 0 0 0
119 1 7.668573248015377 5.903270200200979 14.608421194672403 0 0 0
120 1 8.946668751984586 8.116996647607204 14.608421091044123 0 0 0
123 1 10.22476424801538 5.903270200200979 14.608421194672403 0 0 0
124 1 11.502859751984586 8.116996647607204 14.608421091044123 0 0 0
127 1 12.78095524801538 5.903270200200979 14.608421194672403 0 0 0
128 1 14.059050751984586 8.116996647607204 14.608421091044123 0 0 0

Velocities

1 0 0 0
2 0 0 0
5 0 0 0
17 0 0 0
18 0 0 0
33 0 0 0
6 0 0 0
9 0 0 0
10 0 0 0
13 0 0 0
21 0 0 0
22 0 0 0
25 0 0 0
26 0 0 0
34 0 0 0
37 0 0 0
38 0 0 0
41 0 0 0
14 0 0 0
29 0 0 0
30 0 0 0
42 0 0 0
45 0 0 0
46 0 0 0
4 0 0 0
7 0 0 0
8 0 0 0
11 0 0 0
19 0 0 0
20 0 0 0
23 0 0 0
24 0 0 0
35 0 0 0
36 0 0 0
39 0 0 0
12 0 0 0
15 0 0 0
27 0 0 0
28 0 0 0
40 0 0 0
43 0 0 0
3 0 0 0
16 0 0 0
31 0 0 0
32 0 0 0
44 0 0 0
47 0 0 0
48 0 0 0
49 0 0 0
50 0 0 0
53 0 0 0
54 0 0 0
57 0 0 0
58 0 0 0
61 0 0 0
62 0 0 0
51 0 0 0
52 0 0 0
55 0 0 0
56 0 0 0
59 0 0 0
60 0 0 0
63 0 0 0
64 0 0 0
65 0 0 0
66 0 0 0
69 0 0 0
81 0 0 0
97 0 0 0
98 0 0 0
70 0 0 0
73 0 0 0
74 0 0 0
77 0 0 0
82 0 0 0
85 0 0 0
86 0 0 0
89 0 0 0
101 0 0 0
102 0 0 0
105 0 0 0
106 0 0 0
78 0 0 0
90 0 0 0
93 0 0 0
109 0 0 0
110 0 0 0
94 0 0 0
68 0 0 0
71 0 0 0
72 0 0 0
75 0 0 0
83 0 0 0
84 0 0 0
87 0 0 0
99 0 0 0
100 0 0 0
103 0 0 0
104 0 0 0
76 0 0 0
79 0 0 0
88 0 0 0
91 0 0 0
107 0 0 0
108 0 0 0
67 0 0 0
80 0 0 0
92 0 0 0
95 0 0 0
96 0 0 0
111 0 0 0
112 0 0 0
113 0 0 0
114 0 0 0
117 0 0 0
118 0 0 0
121 0 0 0
122 0 0 0
125 0 0 0
126 0 0 0
115 0 0 0
116 0 0 0
119 0 0 0
120 0 0 0
123 0 0 0
124 0 0 0
127 0 0 0
128 0 0 0
