LAMMPS data file via write_data, version 22 Jul 2025, timestep = 3, units = metal

128 atoms
3 atom types

0 10.224764 xlo xhi
0 8.854905 ylo yhi
0 16.69697 zlo zhi
5.112382 0 0 xy xz yz

Masses

1 63.55
2 63.55
3 63.55

Atoms # atomic

1 1 2.556191286694448 1.4758177784184563 16.695496422638033 0 0 -1
17 1 2.8644280157353e-07 4.473075842468183e-08 2.0871210034743313 0 0 0
18 1 11.502859713557918 2.2137266684557533 2.0871210034741012 -1 0 0
21 1 2.5561912864428025 4.4730758135907655e-08 2.0871210034743313 0 0 0
33 1 2.556191286694094 1.4758177784186182 4.175716110589157 0 0 0
2 1 3.8342867133056524 3.6895440113385845 16.695496518333027 0 0 -1
5 1 5.112382286694447 1.4758177784184567 16.695496422638033 0 0 -1
6 1 6.3904777133056525 3.689544011338584 16.695496518333027 0 0 -1
9 1 7.668573286694449 1.4758177784184556 16.69549642263803 0 0 -1
22 1 3.8342867135579173 2.2137266684557533 2.0871210034741012 0 0 0
25 1 5.112382286442803 4.4730758333653955e-08 2.0871210034743313 0 0 0
26 1 6.3904777135579165 2.213726668455753 2.0871210034741017 0 0 0
29 1 7.668573286442804 4.473075871587821e-08 2.0871210034743313 0 0 0
34 1 3.834286713306006 3.6895440113389335 4.1757160148934025 0 0 0
37 1 5.1123822866940944 1.4758177784186182 4.175716110589157 0 0 0
38 1 6.390477713306006 3.6895440113389335 4.175716014893402 0 0 0
41 1 7.6685732866940945 1.4758177784186184 4.175716110589157 0 0 0
10 1 8.946668713305653 3.689544011338584 16.695496518333027 0 0 -1
13 1 10.224764286694446 1.4758177784184572 16.695496422638033 0 0 -1
30 1 8.946668713557917 2.213726668455753 2.087121003474101 0 0 0
42 1 8.946668713306007 3.6895440113389335 4.175716014893402 0 0 0
45 1 10.224764286694096 1.4758177784186182 4.175716110589156 0 0 0
14 1 11.502859713305654 3.6895440113385836 16.695496518333027 0 0 -1
46 1 11.502859713306005 3.689544011338933 4.175716014893402 0 0 0
3 1 5.112382286693883 5.903270255255853 16.69549648025643 0 0 -1
4 1 6.390477713306031 8.116996372051394 16.695496563637235 0 0 -1
7 1 7.668573286693882 5.903270255255854 16.69549648025643 0 0 -1
20 1 3.834286713557628 6.6411790876899355 2.0871210034738006 0 0 0
23 1 5.112382286441944 4.427452626337816 2.0871210034740106 0 0 0
24 1 6.390477713557628 6.6411790876899355 2.0871210034738 0 0 0
27 1 7.668573286441943 4.427452626337816 2.087121003474011 0 0 0
35 1 5.112382286693529 5.903270255255772 4.175716052970075 0 0 0
36 1 6.3904777133063835 8.116996372051691 4.175715969588601 0 0 0
39 1 7.668573286693529 5.903270255255772 4.175716052970073 0 0 0
8 1 8.94666871330603 8.116996372051393 16.695496563637235 0 0 -1
11 1 10.224764286693883 5.903270255255853 16.69549648025643 0 0 -1
28 1 8.946668713557628 6.6411790876899355 2.0871210034737997 0 0 0
31 1 10.224764286441946 4.427452626337815 2.0871210034740106 0 0 0
40 1 8.946668713306385 8.116996372051691 4.1757159695886 0 0 0
43 1 10.22476428669353 5.903270255255773 4.175716052970075 0 0 0
12 1 11.502859713306032 8.116996372051393 16.695496563637235 0 0 -1
15 1 12.780955286693883 5.903270255255853 16.695496480256427 0 0 -1
16 1 14.059050713306029 8.116996372051394 16.695496563637235 0 0 -1
19 1 2.556191286441945 4.427452626337815 2.0871210034740106 0 0 0
32 1 11.502859713557628 6.6411790876899355 2.0871210034738006 0 0 0
44 1 11.502859713306384 8.116996372051691 4.1757159695886 0 0 0
47 1 12.78095528669353 5.903270255255773 4.175716052970076 0 0 0
48 1 14.059050713306386 8.116996372051691 4.1757159695886 0 0 0
49 1 1.278095713877565 0.737909084028863 6.264253277370801 0 0 0
50 1 2.5561912861223526 2.9516352045085292 6.264253289523595 0 0 0
53 1 3.834286713877566 0.7379090840288641 6.2642532773708 0 0 0
54 1 5.112382286122353 2.951635204508529 6.264253289523596 0 0 0
57 1 6.390477713877564 0.7379090840288641 6.2642532773708 0 0 0
58 1 7.668573286122353 2.9516352045085292 6.264253289523596 0 0 0
61 1 8.946668713877568 0.7379090840288637 6.2642532773708 0 0 0
62 1 10.224764286122353 2.9516352045085292 6.264253289523595 0 0 0
51 1 3.8342867138778978 5.165361714271182 6.264253270315395 0 0 0
52 1 5.1123822861220365 7.379087720462354 6.264253317719868 0 0 0
55 1 6.390477713877898 5.165361714271182 6.264253270315397 0 0 0
56 1 7.668573286122036 7.379087720462354 6.264253317719868 0 0 0
59 1 8.946668713877898 5.165361714271182 6.264253270315397 0 0 0
60 1 10.224764286122037 7.379087720462354 6.264253317719867 0 0 0
63 1 11.502859713877896 5.165361714271182 6.264253270315397 0 0 0
64 1 12.780955286122037 7.379087720462353 6.264253317719867 0 0 0
65 1 2.5561912856158457 1.4758177648371995 8.349958634657769 0 0 0
81 1 1.2780957142122826 0.7379090189742054 10.435605994087958 0 0 0
82 1 2.5561912857876945 2.951635250330116 10.435605994088258 0 0 0
97 1 2.5561912856154905 1.4758177648373625 12.521253902987556 0 0 0
66 1 3.834286714384109 3.6895439558560854 8.349958644320802 0 0 0
69 1 5.112382285615846 1.475817764837199 8.349958634657769 0 0 0
70 1 6.390477714384108 3.689543955856085 8.349958644320802 0 0 0
73 1 7.668573285615847 1.475817764837199 8.349958634657769 0 0 0
85 1 3.834286714212282 0.7379090189742051 10.435605994087958 0 0 0
86 1 5.112382285787694 2.951635250330116 10.435605994088258 0 0 0
89 1 6.390477714212282 0.7379090189742048 10.435605994087958 0 0 0
90 1 7.668573285787694 2.951635250330116 10.435605994088258 0 0 0
98 1 3.8342867143844632 3.6895439558566197 12.521253893324994 0 0 0
101 1 5.1123822856154915 1.4758177648373625 12.521253902987556 0 0 0
102 1 6.390477714384462 3.6895439558566197 12.521253893324994 0 0 0
105 1 7.668573285615491 1.4758177648373618 12.521253902987556 0 0 0
74 1 8.946668714384108 3.6895439558560854 8.349958644320802 0 0 0
77 1 10.224764285615844 1.4758177648371995 8.349958634657769 0 0 0
93 1 8.94666871421228 0.7379090189742047 10.435605994087958 0 0 0
94 1 10.224764285787694 2.9516352503301166 10.435605994088258 0 0 0
106 1 8.946668714384462 3.689543955856619 12.521253893324994 0 0 0
109 1 10.224764285615493 1.4758177648373623 12.521253902987556 0 0 0
78 1 11.502859714384108 3.689543955856085 8.349958644320802 0 0 0
110 1 11.502859714384462 3.689543955856619 12.521253893324994 0 0 0
67 1 5.112382285615503 5.903270229377486 8.349958664648975 0 0 0
68 1 6.3904777143845255 8.116996343249468 8.34995867665617 0 0 0
71 1 7.668573285615504 5.903270229377486 8.349958664648975 0 0 0
83 1 3.8342867142126607 5.165361662932155 10.435605994087883 0 0 0
84 1 5.112382285787363 7.379087773236751 10.435605994087949 0 0 0
87 1 6.390477714212661 5.165361662932155 10.435605994087883 0 0 0
88 1 7.668573285787364 7.379087773236753 10.435605994087949 0 0 0
99 1 5.1123822856151495 5.903270229377202 12.521253872996255 0 0 0
100 1 6.390477714384879 8.116996343249909 12.521253860989768 0 0 0
103 1 7.66857328561515 5.903270229377202 12.521253872996253 0 0 0
72 1 8.946668714384526 8.11699634324947 8.34995867665617 0 0 0
75 1 10.224764285615503 5.903270229377486 8.349958664648971 0 0 0
91 1 8.94666871421266 5.165361662932155 10.435605994087883 0 0 0
92 1 10.224764285787362 7.379087773236753 10.435605994087949 0 0 0
104 1 8.946668714384877 8.11699634324991 12.521253860989768 0 0 0
107 1 10.224764285615148 5.903270229377202 12.521253872996255 0 0 0
76 1 11.502859714384524 8.11699634324947 8.34995867665617 0 0 0
79 1 12.780955285615502 5.903270229377486 8.349958664648975 0 0 0
80 1 14.059050714384524 8.11699634324947 8.34995867665617 0 0 0
95 1 11.502859714212661 5.165361662932155 10.435605994087883 0 0 0
96 1 12.780955285787364 7.379087773236754 10.435605994087949 0 0 0
108 1 11.502859714384877 8.11699634324991 12.521253860989768 0 0 0
111 1 12.78095528561515 5.903270229377202 12.521253872996255 0 0 0
112 1 14.059050714384878 8.11699634324991 12.521253860989768 0 0 0
113 1 1.2780957138775584 0.7379090840288852 14.606958654194766 0 0 0
114 1 2.5561912861223606 2.9516352045085257 14.606958642042095 0 0 0
117 1 3.8342867138775576 0.7379090840288852 14.606958654194766 0 0 0
118 1 5.11238228612236 2.9516352045085257 14.606958642042095 0 0 0
121 1 6.390477713877559 0.7379090840288856 14.606958654194766 0 0 0
122 1 7.668573286122359 2.9516352045085252 14.606958642042095 0 0 0
125 1 8.946668713877557 0.7379090840288852 14.606958654194766 0 0 0
126 1 10.224764286122362 2.9516352045085252 14.606958642042095 0 0 0
115 1 3.834286713877889 5.165361714271191 14.606958661250147 0 0 0
116 1 5.112382286122044 7.37908772046233 14.606958613846801 0 0 0
119 1 6.390477713877889 5.165361714271192 14.606958661250145 0 0 0
120 1 7.668573286122044 7.37908772046233 14.606958613846801 0 0 0
123 1 8.946668713877889 5.165361714271192 14.606958661250147 0 0 0
124 1 10.224764286122044 7.37908772046233 14.606958613846801 0 0 0
127 1 11.502859713877887 5.165361714271191 14.606958661250145 0 0 0
128 1 12.780955286122044 7.379087720462332 14.606958613846801 0 0 0

Velocities

1 0 0 0
17 0 0 0
18 0 0 0
21 0 0 0
33 0 0 0
2 0 0 0
5 0 0 0
6 0 0 0
9 0 0 0
22 0 0 0
25 0 0 0
26 0 0 0
29 0 0 0
34 0 0 0
37 0 0 0
38 0 0 0
41 0 0 0
10 0 0 0
13 0 0 0
30 0 0 0
42 0 0 0
45 0 0 0
14 0 0 0
46 0 0 0
3 0 0 0
4 0 0 0
7 0 0 0
20 0 0 0
23 0 0 0
24 0 0 0
27 0 0 0
35 0 0 0
36 0 0 0
39 0 0 0
8 0 0 0
11 0 0 0
28 0 0 0
31 0 0 0
40 0 0 0
43 0 0 0
12 0 0 0
15 0 0 0
16 0 0 0
19 0 0 0
32 0 0 0
44 0 0 0
47 0 0 0
48 0 0 0
49 0 0 0
50 0 0 0
53 0 0 0
54 0 0 0
57 0 0 0
58 0 0 0
61 0 0 0
62 0 0 0
51 0 0 0
52 0 0 0
55 0 0 0
56 0 0 0
59 0 0 0
60 0 0 0
63 0 0 0
64 0 0 0
65 0 0 0
81 0 0 0
82 0 0 0
97 0 0 0
66 0 0 0
69 0 0 0
70 0 0 0
73 0 0 0
85 0 0 0
86 0 0 0
89 0 0 0
90 0 0 0
98 0 0 0
101 0 0 0
102 0 0 0
105 0 0 0
74 0 0 0
77 0 0 0
93 0 0 0
94 0 0 0
106 0 0 0
109 0 0 0
78 0 0 0
110 0 0 0
67 0 0 0
68 0 0 0
71 0 0 0
83 0 0 0
84 0 0 0
87 0 0 0
88 0 0 0
99 0 0 0
100 0 0 0
103 0 0 0
72 0 0 0
75 0 0 0
91 0 0 0
92 0 0 0
104 0 0 0
107 0 0 0
76 0 0 0
79 0 0 0
80 0 0 0
95 0 0 0
96 0 0 0
108 0 0 0
111 0 0 0
112 0 0 0
113 0 0 0
114 0 0 0
117 0 0 0
118 0 0 0
121 0 0 0
122 0 0 0
125 0 0 0
126 0 0 0
115 0 0 0
116 0 0 0
119 0 0 0
120 0 0 0
123 0 0 0
124 0 0 0
127 0 0 0
128 0 0 0
