LAMMPS data file via write_data, version 22 Jul 2025, timestep = 5, units = metal

128 atoms
3 atom types

0 10.224764 xlo xhi
0 8.854905 ylo yhi
0 16.69697 zlo zhi
5.112382 0 0 xy xz yz

Masses

1 63.55
2 63.55
3 63.55

Atoms # atomic

1 1 1.278095751151562 0.7379089635473358 16.696938403018155 0 0 -1
2 1 2.556191248848454 2.9516351941600143 16.696938408736578 0 0 -1
17 1 2.4863253427406355e-07 2.2175584034230115e-07 2.0871210858717153 0 0 0
18 1 1.2780957513675026 2.2137264545439654 2.087121085871927 0 0 0
21 1 2.556191248632534 2.2175584008825402e-07 2.0871210858717157 0 0 0
33 1 1.2780957511515487 0.7379089635472325 4.174273927174689 0 0 0
34 1 2.5561912488484673 2.9516351941600605 4.174273921456477 0 0 0
5 1 3.8342867511515624 0.7379089635473359 16.696938403018155 0 0 -1
6 1 5.112382248848454 2.9516351941600143 16.696938408736578 0 0 -1
9 1 6.390477751151561 0.7379089635473359 16.696938403018155 0 0 -1
10 1 7.668573248848454 2.951635194160014 16.696938408736578 0 0 -1
22 1 3.834286751367502 2.213726454543965 2.0871210858719276 0 0 0
25 1 5.112382248632534 2.2175583992296534e-07 2.087121085871715 0 0 0
26 1 6.390477751367502 2.2137264545439654 2.087121085871927 0 0 0
29 1 7.6685732486325335 2.2175584013882906e-07 2.0871210858717153 0 0 0
37 1 3.8342867511515477 0.7379089635472325 4.1742739271746885 0 0 0
38 1 5.112382248848468 2.9516351941600614 4.174273921456477 0 0 0
41 1 6.390477751151549 0.7379089635472323 4.174273927174689 0 0 0
42 1 7.6685732488484675 2.9516351941600605 4.174273921456477 0 0 0
13 1 8.946668751151563 0.7379089635473359 16.69693840301816 0 0 -1
14 1 10.224764248848455 2.9516351941600143 16.696938408736578 0 0 -1
30 1 8.9466687513675 2.213726454543965 2.087121085871927 0 0 0
45 1 8.946668751151549 0.7379089635472323 4.1742739271746885 0 0 0
46 1 10.224764248848468 2.9516351941600614 4.174273921456477 0 0 0
3 1 3.8342867511515397 5.165361463808869 16.696938408986664 0 0 -1
4 1 5.112382248848432 7.3790876851317755 16.696938404179026 0 0 -1
7 1 6.390477751151542 5.165361463808869 16.696938408986664 0 0 -1
8 1 7.668573248848432 7.379087685131775 16.696938404179026 0 0 -1
20 1 3.8342867513674417 6.641178945967765 2.0871210858718383 0 0 0
23 1 5.112382248632532 4.427452704471205 2.0871210858717073 0 0 0
24 1 6.390477751367442 6.641178945967765 2.087121085871838 0 0 0
27 1 7.668573248632533 4.427452704471205 2.0871210858717073 0 0 0
35 1 3.834286751151527 5.165361463808794 4.174273921206157 0 0 0
36 1 5.112382248848445 7.3790876851317915 4.174273926013824 0 0 0
39 1 6.3904777511515265 5.165361463808794 4.174273921206156 0 0 0
40 1 7.668573248848446 7.379087685131792 4.174273926013824 0 0 0
11 1 8.94666875115154 5.165361463808869 16.696938408986668 0 0 -1
12 1 10.224764248848432 7.379087685131775 16.696938404179026 0 0 -1
28 1 8.946668751367442 6.641178945967765 2.087121085871838 0 0 0
31 1 10.224764248632532 4.427452704471205 2.0871210858717077 0 0 0
43 1 8.946668751151527 5.165361463808792 4.174273921206156 0 0 0
44 1 10.224764248848446 7.3790876851317915 4.174273926013824 0 0 0
15 1 11.50285975115154 5.165361463808869 16.696938408986664 0 0 -1
16 1 12.780955248848432 7.3790876851317755 16.696938404179026 0 0 -1
19 1 2.556191248632532 4.427452704471205 2.0871210858717073 0 0 0
32 1 11.502859751367442 6.641178945967765 2.087121085871838 0 0 0
47 1 11.502859751151526 5.165361463808794 4.174273921206157 0 0 0
48 1 12.780955248848446 7.379087685131792 4.174273926013824 0 0 0
49 1 2.556191248846077 1.4758177081373693 6.264245972836565 0 0 0
50 1 3.8342867511539147 3.689543965465075 6.2642459836429065 0 0 0
53 1 5.112382248846077 1.4758177081373696 6.264245972836565 0 0 0
54 1 6.390477751153915 3.689543965465075 6.264245983642907 0 0 0
57 1 7.668573248846077 1.4758177081373696 6.264245972836565 0 0 0
58 1 8.946668751153915 3.689543965465075 6.2642459836429065 0 0 0
61 1 10.224764248846078 1.4758177081373693 6.264245972836565 0 0 0
62 1 11.502859751153915 3.689543965465075 6.2642459836429065 0 0 0
51 1 5.112382248846034 5.903270231317932 6.264245968827198 0 0 0
52 1 6.390477751153953 8.116996459978312 6.264245982555016 0 0 0
55 1 7.668573248846034 5.903270231317932 6.264245968827197 0 0 0
56 1 8.946668751153954 8.116996459978314 6.264245982555016 0 0 0
59 1 10.224764248846036 5.903270231317932 6.264245968827197 0 0 0
60 1 11.502859751153954 8.116996459978314 6.264245982555016 0 0 0
63 1 12.780955248846034 5.903270231317933 6.264245968827197 0 0 0
64 1 14.059050751153954 8.116996459978314 6.264245982555016 0 0 0
65 1 2.486994776478256e-07 2.0856710386253176e-07 8.351374038356022 0 0 0
66 1 1.2780957513006312 2.213726485775599 8.35137405020911 0 0 0
69 1 2.5561912486994776 2.0856710392549604e-07 8.351374038356022 0 0 0
81 1 2.556191248771134 1.4758177861867654 10.43560608135163 0 0 0
97 1 2.4869949126632516e-07 2.0856720058054985e-07 12.519838296739918 0 0 0
98 1 1.2780957513006184 2.213726485775481 12.519838284886514 0 0 0
101 1 2.5561912486994918 2.0856720070312083e-07 12.519838296739918 0 0 0
70 1 3.8342867513006316 2.213726485775599 8.35137405020911 0 0 0
73 1 5.112382248699478 2.0856710371362107e-07 8.351374038356022 0 0 0
74 1 6.39047775130063 2.213726485775599 8.35137405020911 0 0 0
77 1 7.668573248699478 2.0856710367867493e-07 8.351374038356022 0 0 0
82 1 3.8342867512288414 3.689544000685899 10.435606081351885 0 0 0
85 1 5.112382248771134 1.4758177861867654 10.43560608135163 0 0 0
86 1 6.3904777512288415 3.689544000685899 10.435606081351885 0 0 0
89 1 7.668573248771134 1.4758177861867656 10.43560608135163 0 0 0
102 1 3.8342867513006187 2.2137264857754815 12.519838284886514 0 0 0
105 1 5.112382248699491 2.0856720095882827e-07 12.519838296739918 0 0 0
106 1 6.390477751300618 2.213726485775481 12.519838284886514 0 0 0
109 1 7.6685732486994915 2.085672006746186e-07 12.519838296739918 0 0 0
78 1 8.946668751300631 2.213726485775599 8.35137405020911 0 0 0
90 1 8.946668751228842 3.689544000685899 10.435606081351885 0 0 0
93 1 10.224764248771132 1.475817786186765 10.43560608135163 0 0 0
110 1 8.946668751300619 2.2137264857754815 12.519838284886514 0 0 0
94 1 11.50285975122884 3.689544000685899 10.435606081351887 0 0 0
68 1 3.834286751300513 6.641178982806719 8.351374051563319 0 0 0
71 1 5.112382248699392 4.4274527010253895 8.351374042096628 0 0 0
72 1 6.390477751300512 6.641178982806718 8.351374051563319 0 0 0
75 1 7.668573248699392 4.4274527010253895 8.351374042096628 0 0 0
83 1 5.112382248771039 5.903270279164103 10.435606081351654 0 0 0
84 1 6.390477751228999 8.116996507781767 10.435606081351938 0 0 0
87 1 7.668573248771039 5.9032702791641025 10.435606081351654 0 0 0
100 1 3.8342867513004997 6.641178982806629 12.519838283532346 0 0 0
103 1 5.112382248699404 4.427452701025345 12.519838292999376 0 0 0
104 1 6.3904777513005 6.641178982806629 12.519838283532346 0 0 0
107 1 7.668573248699405 4.427452701025345 12.519838292999378 0 0 0
76 1 8.946668751300512 6.641178982806719 8.35137405156332 0 0 0
79 1 10.224764248699392 4.4274527010253895 8.351374042096628 0 0 0
88 1 8.946668751228998 8.116996507781769 10.435606081351938 0 0 0
91 1 10.224764248771042 5.903270279164103 10.435606081351654 0 0 0
108 1 8.9466687513005 6.641178982806629 12.519838283532346 0 0 0
111 1 10.224764248699403 4.427452701025346 12.519838292999378 0 0 0
67 1 2.556191248699392 4.4274527010253895 8.351374042096626 0 0 0
80 1 11.502859751300512 6.641178982806719 8.351374051563319 0 0 0
92 1 11.502859751228998 8.116996507781767 10.435606081351938 0 0 0
95 1 12.78095524877104 5.9032702791641025 10.435606081351654 0 0 0
96 1 14.059050751228998 8.116996507781767 10.43560608135194 0 0 0
99 1 2.556191248699403 4.427452701025345 12.519838292999378 0 0 0
112 1 11.502859751300502 6.641178982806629 12.519838283532346 0 0 0
113 1 2.556191248846077 1.4758177081374324 14.606966194651097 0 0 0
114 1 3.8342867511539147 3.6895439654649906 14.606966183845003 0 0 0
117 1 5.112382248846078 1.4758177081374324 14.606966194651097 0 0 0
118 1 6.390477751153913 3.6895439654649906 14.606966183845003 0 0 0
121 1 7.668573248846079 1.475817708137433 14.606966194651097 0 0 0
122 1 8.946668751153915 3.6895439654649906 14.606966183845003 0 0 0
125 1 10.224764248846077 1.4758177081374326 14.606966194651097 0 0 0
126 1 11.502859751153915 3.6895439654649906 14.606966183845003 0 0 0
115 1 5.112382248846035 5.903270231317909 14.606966198660427 0 0 0
116 1 6.390477751153955 8.11699645997832 14.606966184932688 0 0 0
119 1 7.668573248846035 5.903270231317909 14.606966198660427 0 0 0
120 1 8.946668751153954 8.116996459978319 14.606966184932688 0 0 0
123 1 10.224764248846036 5.903270231317909 14.606966198660425 0 0 0
124 1 11.502859751153956 8.11699645997832 14.606966184932688 0 0 0
127 1 12.780955248846034 5.903270231317909 14.606966198660427 0 0 0
128 1 14.059050751153954 8.116996459978319 14.606966184932688 0 0 0

Velocities

1 0 0 0
2 0 0 0
17 0 0 0
18 0 0 0
21 0 0 0
33 0 0 0
34 0 0 0
5 0 0 0
6 0 0 0
9 0 0 0
10 0 0 0
22 0 0 0
25 0 0 0
26 0 0 0
29 0 0 0
37 0 0 0
38 0 0 0
41 0 0 0
42 0 0 0
13 0 0 0
14 0 0 0
30 0 0 0
45 0 0 0
46 0 0 0
3 0 0 0
4 0 0 0
7 0 0 0
8 0 0 0
20 0 0 0
23 0 0 0
24 0 0 0
27 0 0 0
35 0 0 0
36 0 0 0
39 0 0 0
40 0 0 0
11 0 0 0
12 0 0 0
28 0 0 0
31 0 0 0
43 0 0 0
44 0 0 0
15 0 0 0
16 0 0 0
19 0 0 0
32 0 0 0
47 0 0 0
48 0 0 0
49 0 0 0
50 0 0 0
53 0 0 0
54 0 0 0
57 0 0 0
58 0 0 0
61 0 0 0
62 0 0 0
51 0 0 0
52 0 0 0
55 0 0 0
56 0 0 0
59 0 0 0
60 0 0 0
63 0 0 0
64 0 0 0
65 0 0 0
66 0 0 0
69 0 0 0
81 0 0 0
97 0 0 0
98 0 0 0
101 0 0 0
70 0 0 0
73 0 0 0
74 0 0 0
77 0 0 0
82 0 0 0
85 0 0 0
86 0 0 0
89 0 0 0
102 0 0 0
105 0 0 0
106 0 0 0
109 0 0 0
78 0 0 0
90 0 0 0
93 0 0 0
110 0 0 0
94 0 0 0
68 0 0 0
71 0 0 0
72 0 0 0
75 0 0 0
83 0 0 0
84 0 0 0
87 0 0 0
100 0 0 0
103 0 0 0
104 0 0 0
107 0 0 0
76 0 0 0
79 0 0 0
88 0 0 0
91 0 0 0
108 0 0 0
111 0 0 0
67 0 0 0
80 0 0 0
92 0 0 0
95 0 0 0
96 0 0 0
99 0 0 0
112 0 0 0
113 0 0 0
114 0 0 0
117 0 0 0
118 0 0 0
121 0 0 0
122 0 0 0
125 0 0 0
126 0 0 0
115 0 0 0
116 0 0 0
119 0 0 0
120 0 0 0
123 0 0 0
124 0 0 0
127 0 0 0
128 0 0 0
