LAMMPS data file via write_data, version 22 Jul 2025, timestep = 2, units = metal

128 atoms
3 atom types

0 10.224764 xlo xhi
0 8.854905 ylo yhi
0 16.69697 zlo zhi
5.112382 0 0 xy xz yz

Masses

1 63.55
2 63.55
3 63.55

Atoms # atomic

1 1 2.556191248683999 1.4758177188839088 16.69696973483571 0 0 -1
17 1 1.2780957519844458 0.7379088445281949 2.085693646403808 0 0 0
18 1 2.5561912480155717 2.9516352337208134 2.085693658054045 0 0 0
33 1 2.4856416070753493e-07 2.254826244730768e-07 4.1742422022102375 0 0 0
34 1 1.2780957514360405 2.2137263009221293 4.174242256081194 0 0 0
37 1 2.556191248564161 2.2548262431520089e-07 4.1742422022102375 0 0 0
2 1 3.834286751316001 3.6895440867249496 16.69696973483594 0 0 -1
5 1 5.112382248684 1.475817718883909 16.69696973483571 0 0 -1
6 1 6.390477751316 3.6895440867249496 16.696969734835942 0 0 -1
9 1 7.668573248683998 1.475817718883909 16.69696973483571 0 0 -1
21 1 3.834286751984445 0.7379088445281949 2.0856936464038074 0 0 0
22 1 5.112382248015573 2.9516352337208134 2.0856936580540446 0 0 0
25 1 6.390477751984446 0.7379088445281954 2.0856936464038074 0 0 0
26 1 7.668573248015572 2.9516352337208134 2.085693658054045 0 0 0
38 1 3.8342867514360406 2.2137263009221297 4.174242256081194 0 0 0
41 1 5.112382248564162 2.2548262423083595e-07 4.1742422022102375 0 0 0
42 1 6.390477751436041 2.2137263009221297 4.174242256081194 0 0 0
45 1 7.668573248564161 2.254826246159187e-07 4.1742422022102375 0 0 0
10 1 8.946668751316 3.6895440867249496 16.69696973483594 0 0 -1
13 1 10.224764248684 1.4758177188839088 16.69696973483571 0 0 -1
29 1 8.946668751984445 0.7379088445281948 2.0856936464038074 0 0 0
30 1 10.224764248015573 2.9516352337208134 2.085693658054045 0 0 0
46 1 8.946668751436041 2.2137263009221297 4.174242256081194 0 0 0
14 1 11.502859751315997 3.6895440867249496 16.69696973483594 0 0 -1
3 1 5.112382248683884 5.903270149011748 16.69696973483541 0 0 -1
4 1 6.390477751316098 8.116996653990165 16.69696973483557 0 0 -1
7 1 7.6685732486838845 5.903270149011748 16.69696973483541 0 0 -1
19 1 3.8342867519845028 5.165361333530282 2.0856936425569574 0 0 0
20 1 5.112382248015418 7.3790877456655855 2.0856936434833964 0 0 0
23 1 6.390477751984502 5.165361333530282 2.0856936425569574 0 0 0
24 1 7.668573248015418 7.3790877456655855 2.0856936434833964 0 0 0
36 1 3.8342867514358625 6.64117884099505 4.174242238454198 0 0 0
39 1 5.112382248564001 4.427452792015742 4.174242253607775 0 0 0
40 1 6.390477751435862 6.64117884099505 4.174242238454198 0 0 0
43 1 7.668573248564002 4.427452792015742 4.174242253607775 0 0 0
8 1 8.946668751316098 8.116996653990165 16.69696973483557 0 0 -1
11 1 10.224764248683885 5.903270149011748 16.69696973483541 0 0 -1
27 1 8.946668751984502 5.165361333530282 2.0856936425569574 0 0 0
28 1 10.22476424801542 7.3790877456655855 2.085693643483397 0 0 0
44 1 8.946668751435862 6.64117884099505 4.174242238454198 0 0 0
47 1 10.224764248564002 4.427452792015742 4.174242253607775 0 0 0
12 1 11.502859751316098 8.116996653990165 16.69696973483557 0 0 -1
15 1 12.780955248683885 5.903270149011748 16.69696973483541 0 0 -1
16 1 14.059050751316098 8.116996653990165 16.69696973483557 0 0 -1
31 1 11.502859751984502 5.165361333530282 2.0856936425569574 0 0 0
32 1 12.78095524801542 7.379087745665586 2.0856936434833964 0 0 0
35 1 2.556191248564001 4.427452792015742 4.174242253607775 0 0 0
48 1 11.50285975143586 6.64117884099505 4.174242238454198 0 0 0
49 1 2.556191248015527 1.4758177115087558 6.262791327994054 0 0 0
50 1 3.8342867519845187 3.6895441315545354 6.262791422175246 0 0 0
53 1 5.112382248015528 1.4758177115087567 6.262791327994053 0 0 0
54 1 6.390477751984518 3.6895441315545354 6.262791422175247 0 0 0
57 1 7.6685732480155275 1.4758177115087558 6.262791327994054 0 0 0
58 1 8.946668751984518 3.689544131554536 6.262791422175247 0 0 0
61 1 10.224764248015529 1.475817711508756 6.262791327994054 0 0 0
62 1 11.502859751984516 3.689544131554536 6.262791422175247 0 0 0
51 1 5.112382248015328 5.90327020020173 6.262791333004393 0 0 0
52 1 6.390477751984633 8.116996647606815 6.262791436632025 0 0 0
55 1 7.668573248015328 5.90327020020173 6.262791333004394 0 0 0
56 1 8.946668751984635 8.116996647606815 6.262791436632025 0 0 0
59 1 10.224764248015328 5.90327020020173 6.262791333004393 0 0 0
60 1 11.502859751984634 8.116996647606815 6.262791436632025 0 0 0
63 1 12.780955248015328 5.90327020020173 6.262791333004393 0 0 0
64 1 14.059050751984632 8.116996647606815 6.262791436632025 0 0 0
65 1 1.2780957513160154 0.7379088766150824 8.348484734835614 0 0 0
66 1 2.5561912486839917 2.9516353427842446 8.348484734835807 0 0 0
81 1 2.556191248015623 1.475817711508581 10.434178699582084 0 0 0
97 1 2.485641607072155e-07 2.2548264981191446e-07 12.522727272966524 0 0 0
98 1 1.2780957514360414 2.213726300922151 12.522727219095382 0 0 0
101 1 2.5561912485641605 2.2548265064170926e-07 12.522727272966522 0 0 0
69 1 3.8342867513160153 0.7379088766150828 8.348484734835615 0 0 0
70 1 5.112382248683991 2.951635342784245 8.348484734835807 0 0 0
73 1 6.390477751316016 0.7379088766150829 8.348484734835614 0 0 0
74 1 7.668573248683991 2.951635342784244 8.348484734835807 0 0 0
82 1 3.8342867519844233 3.6895441315545376 10.434178605400925 0 0 0
85 1 5.1123822480156225 1.475817711508581 10.434178699582084 0 0 0
86 1 6.390477751984424 3.689544131554537 10.434178605400925 0 0 0
89 1 7.668573248015622 1.475817711508581 10.434178699582084 0 0 0
102 1 3.834286751436041 2.213726300922152 12.522727219095382 0 0 0
105 1 5.112382248564161 2.2548264971627214e-07 12.522727272966524 0 0 0
106 1 6.390477751436041 2.213726300922152 12.522727219095383 0 0 0
109 1 7.668573248564162 2.2548265018083853e-07 12.522727272966522 0 0 0
77 1 8.946668751316015 0.7379088766150823 8.348484734835614 0 0 0
78 1 10.224764248683993 2.951635342784245 8.348484734835807 0 0 0
90 1 8.946668751984424 3.689544131554537 10.434178605400925 0 0 0
93 1 10.224764248015624 1.4758177115085807 10.434178699582084 0 0 0
110 1 8.946668751436041 2.213726300922152 12.522727219095382 0 0 0
94 1 11.502859751984424 3.6895441315545363 10.434178605400925 0 0 0
67 1 3.8342867513160974 5.165361300714729 8.348484734835791 0 0 0
68 1 5.112382248683883 7.379087855810953 8.348484734835418 0 0 0
71 1 6.390477751316097 5.1653613007147285 8.348484734835791 0 0 0
72 1 7.668573248683884 7.379087855810954 8.34848473483542 0 0 0
83 1 5.112382248015422 5.903270200201412 10.434178694571314 0 0 0
84 1 6.390477751984539 8.116996647607003 10.434178590943839 0 0 0
87 1 7.668573248015424 5.903270200201412 10.434178694571314 0 0 0
100 1 3.8342867514358625 6.641178840995107 12.522727236722522 0 0 0
103 1 5.112382248564002 4.42745279201577 12.522727221569149 0 0 0
104 1 6.390477751435862 6.641178840995108 12.522727236722524 0 0 0
107 1 7.668573248564002 4.42745279201577 12.522727221569149 0 0 0
75 1 8.946668751316096 5.1653613007147285 8.348484734835791 0 0 0
76 1 10.224764248683883 7.379087855810953 8.34848473483542 0 0 0
88 1 8.94666875198454 8.116996647607003 10.434178590943839 0 0 0
91 1 10.224764248015422 5.903270200201412 10.434178694571314 0 0 0
108 1 8.946668751435862 6.641178840995107 12.522727236722524 0 0 0
111 1 10.224764248564004 4.427452792015772 12.522727221569149 0 0 0
79 1 11.502859751316095 5.1653613007147285 8.348484734835791 0 0 0
80 1 12.780955248683883 7.379087855810954 8.34848473483542 0 0 0
92 1 11.50285975198454 8.116996647607003 10.434178590943839 0 0 0
95 1 12.780955248015424 5.903270200201412 10.434178694571314 0 0 0
96 1 14.05905075198454 8.116996647607003 10.434178590943839 0 0 0
99 1 2.5561912485640015 4.42745279201577 12.522727221569149 0 0 0
112 1 11.50285975143586 6.641178840995107 12.522727236722524 0 0 0
113 1 1.2780957519845415 0.7379088445282062 14.611276381172217 0 0 0
114 1 2.5561912480154767 2.951635233720701 14.611276369522235 0 0 0
117 1 3.8342867519845405 0.7379088445282064 14.611276381172217 0 0 0
118 1 5.112382248015478 2.9516352337207015 14.611276369522235 0 0 0
121 1 6.390477751984542 0.7379088445282065 14.611276381172217 0 0 0
122 1 7.668573248015478 2.951635233720701 14.611276369522235 0 0 0
125 1 8.946668751984541 0.7379088445282063 14.611276381172217 0 0 0
126 1 10.224764248015479 2.9516352337207015 14.611276369522235 0 0 0
115 1 3.834286751984597 5.165361333530483 14.611276385018733 0 0 0
116 1 5.112382248015324 7.379087745665345 14.611276384092484 0 0 0
119 1 6.390477751984598 5.165361333530484 14.611276385018733 0 0 0
120 1 7.668573248015324 7.379087745665343 14.611276384092484 0 0 0
123 1 8.946668751984598 5.165361333530483 14.611276385018733 0 0 0
124 1 10.224764248015324 7.379087745665343 14.611276384092484 0 0 0
127 1 11.502859751984598 5.165361333530483 14.611276385018733 0 0 0
128 1 12.780955248015324 7.379087745665345 14.611276384092484 0 0 0

Velocities

1 0 0 0
17 0 0 0
18 0 0 0
33 0 0 0
34 0 0 0
37 0 0 0
2 0 0 0
5 0 0 0
6 0 0 0
9 0 0 0
21 0 0 0
22 0 0 0
25 0 0 0
26 0 0 0
38 0 0 0
41 0 0 0
42 0 0 0
45 0 0 0
10 0 0 0
13 0 0 0
29 0 0 0
30 0 0 0
46 0 0 0
14 0 0 0
3 0 0 0
4 0 0 0
7 0 0 0
19 0 0 0
20 0 0 0
23 0 0 0
24 0 0 0
36 0 0 0
39 0 0 0
40 0 0 0
43 0 0 0
8 0 0 0
11 0 0 0
27 0 0 0
28 0 0 0
44 0 0 0
47 0 0 0
12 0 0 0
15 0 0 0
16 0 0 0
31 0 0 0
32 0 0 0
35 0 0 0
48 0 0 0
49 0 0 0
50 0 0 0
53 0 0 0
54 0 0 0
57 0 0 0
58 0 0 0
61 0 0 0
62 0 0 0
51 0 0 0
52 0 0 0
55 0 0 0
56 0 0 0
59 0 0 0
60 0 0 0
63 0 0 0
64 0 0 0
65 0 0 0
66 0 0 0
81 0 0 0
97 0 0 0
98 0 0 0
101 0 0 0
69 0 0 0
70 0 0 0
73 0 0 0
74 0 0 0
82 0 0 0
85 0 0 0
86 0 0 0
89 0 0 0
102 0 0 0
105 0 0 0
106 0 0 0
109 0 0 0
77 0 0 0
78 0 0 0
90 0 0 0
93 0 0 0
110 0 0 0
94 0 0 0
67 0 0 0
68 0 0 0
71 0 0 0
72 0 0 0
83 0 0 0
84 0 0 0
87 0 0 0
100 0 0 0
103 0 0 0
104 0 0 0
107 0 0 0
75 0 0 0
76 0 0 0
88 0 0 0
91 0 0 0
108 0 0 0
111 0 0 0
79 0 0 0
80 0 0 0
92 0 0 0
95 0 0 0
96 0 0 0
99 0 0 0
112 0 0 0
113 0 0 0
114 0 0 0
117 0 0 0
118 0 0 0
121 0 0 0
122 0 0 0
125 0 0 0
126 0 0 0
115 0 0 0
116 0 0 0
119 0 0 0
120 0 0 0
123 0 0 0
124 0 0 0
127 0 0 0
128 0 0 0
