LAMMPS data file via write_data, version 22 Jul 2025, timestep = 5, units = metal

128 atoms
3 atom types

0 10.224764 xlo xhi
0 8.854905 ylo yhi
0 16.69697 zlo zhi
5.112382 0 0 xy xz yz

Masses

1 63.55
2 63.55
3 63.55

Atoms # atomic

1 1 2.48849324129223e-07 2.234968952117084e-07 3.142710555405284e-05 0 0 0
2 1 1.2780957511507631 2.213726465485423 3.142248458692976e-05 0 0 0
5 1 2.5561912488493244 2.2349689611882641e-07 3.142710555510861e-05 0 0 0
17 1 1.2780957511531157 0.7379089451214629 2.090003476836791 0 0 0
18 1 2.5561912488469245 2.9516352099302194 2.090003481769516 0 0 0
33 1 2.556191248700296 1.4758176902863946 4.177131554100515 0 0 0
6 1 3.8342867511507635 2.213726465485423 3.142248458699232e-05 0 0 0
9 1 5.112382248849324 2.234968962625972e-07 3.14271055550182e-05 0 0 0
10 1 6.3904777511507636 2.213726465485423 3.142248458703398e-05 0 0 0
13 1 7.668573248849324 2.2349689574608282e-07 3.142710555524058e-05 0 0 0
21 1 3.8342867511531162 0.7379089451214625 2.0900034768367917 0 0 0
22 1 5.112382248846924 2.9516352099302194 2.090003481769516 0 0 0
25 1 6.390477751153116 0.7379089451214625 2.090003476836791 0 0 0
26 1 7.668573248846925 2.9516352099302194 2.090003481769516 0 0 0
34 1 3.834286751299704 3.689543930201593 4.177131542918498 0 0 0
37 1 5.112382248700296 1.4758176902863946 4.177131554100515 0 0 0
38 1 6.390477751299704 3.6895439302015935 4.177131542918499 0 0 0
41 1 7.668573248700296 1.4758176902863942 4.177131554100515 0 0 0
14 1 8.946668751150764 2.2137264654854225 3.142248458688272e-05 0 0 0
29 1 8.946668751153116 0.737908945121463 2.0900034768367917 0 0 0
30 1 10.224764248846924 2.9516352099302194 2.090003481769516 0 0 0
42 1 8.946668751299704 3.689543930201593 4.177131542918498 0 0 0
45 1 10.224764248700296 1.4758176902863942 4.177131554100515 0 0 0
46 1 11.502859751299702 3.689543930201593 4.177131542918498 0 0 0
4 1 3.8342867511506444 6.641178964764737 3.142526642977677e-05 0 0 0
7 1 5.1123822488492845 4.4274527113310125 3.1432554808923046e-05 0 0 0
8 1 6.3904777511506445 6.641178964764737 3.142526642973243e-05 0 0 0
11 1 7.668573248849285 4.4274527113310125 3.143255480862949e-05 0 0 0
19 1 3.8342867511530856 5.165361449645747 2.090003478744323 0 0 0
20 1 5.1123822488468615 7.379087700731159 2.090003483844138 0 0 0
23 1 6.390477751153085 5.165361449645747 2.090003478744323 0 0 0
24 1 7.668573248846861 7.379087700731159 2.090003483844138 0 0 0
35 1 5.112382248700312 5.903270198318321 4.177131546214903 0 0 0
36 1 6.390477751299664 8.116996438075727 4.177131543451082 0 0 0
39 1 7.668573248700312 5.903270198318321 4.177131546214903 0 0 0
12 1 8.946668751150645 6.641178964764737 3.1425266429671976e-05 0 0 0
15 1 10.224764248849283 4.4274527113310125 3.1432554808653846e-05 0 0 0
27 1 8.946668751153087 5.165361449645747 2.090003478744323 0 0 0
28 1 10.22476424884686 7.379087700731159 2.090003483844138 0 0 0
40 1 8.946668751299665 8.116996438075727 4.177131543451082 0 0 0
43 1 10.22476424870031 5.90327019831832 4.177131546214903 0 0 0
3 1 2.556191248849283 4.4274527113310125 3.143255480858066e-05 0 0 0
16 1 11.502859751150645 6.641178964764737 3.142526643060574e-05 0 0 0
31 1 11.502859751153085 5.165361449645747 2.0900034787443236 0 0 0
32 1 12.780955248846862 7.379087700731159 2.0900034838441375 0 0 0
44 1 11.502859751299663 8.116996438075727 4.177131543451082 0 0 0
47 1 12.780955248700312 5.90327019831832 4.177131546214903 0 0 0
48 1 14.059050751299663 8.116996438075727 4.177131543451082 0 0 0
49 1 1.2780957512280273 0.7379090365632005 6.261363581258844 0 0 0
50 1 2.5561912487719654 2.9516352783555715 6.261363581259028 0 0 0
53 1 3.834286751228028 0.7379090365632003 6.261363581258844 0 0 0
54 1 5.112382248771965 2.951635278355571 6.261363581259028 0 0 0
57 1 6.390477751228028 0.7379090365632001 6.261363581258844 0 0 0
58 1 7.668573248771967 2.9516352783555715 6.261363581259028 0 0 0
61 1 8.946668751228028 0.7379090365631997 6.261363581258843 0 0 0
62 1 10.224764248771963 2.951635278355571 6.261363581259028 0 0 0
51 1 3.8342867512280243 5.165361544843061 6.2613635812588795 0 0 0
52 1 5.11238224877197 7.3790877678774995 6.261363581259016 0 0 0
55 1 6.390477751228024 5.165361544843063 6.26136358125888 0 0 0
56 1 7.66857324877197 7.379087767877499 6.261363581259016 0 0 0
59 1 8.946668751228025 5.165361544843063 6.2613635812588795 0 0 0
60 1 10.224764248771972 7.3790877678774995 6.261363581259016 0 0 0
63 1 11.502859751228025 5.165361544843063 6.2613635812588795 0 0 0
64 1 12.78095524877197 7.3790877678774995 6.261363581259016 0 0 0
65 1 2.5561912487002827 1.4758176902863638 8.345595780251093 0 0 0
81 1 1.2780957511531161 0.7379089451213722 10.432723692357744 0 0 0
82 1 2.5561912488469227 2.9516352099301466 10.432723687425133 0 0 0
97 1 2.4884933797993674e-07 2.2349690448073948e-07 12.52269590231047 0 0 0
98 1 1.2780957511507494 2.213726465485317 12.522695906931354 0 0 0
101 1 2.5561912488493386 2.234969042326579e-07 12.52269590231047 0 0 0
66 1 3.834286751299717 3.6895439302015367 8.345595791433354 0 0 0
69 1 5.112382248700284 1.4758176902863638 8.345595780251095 0 0 0
70 1 6.390477751299716 3.689543930201537 8.345595791433354 0 0 0
73 1 7.668573248700282 1.4758176902863638 8.345595780251093 0 0 0
85 1 3.834286751153116 0.7379089451213714 10.432723692357744 0 0 0
86 1 5.112382248846923 2.9516352099301466 10.432723687425135 0 0 0
89 1 6.390477751153116 0.7379089451213718 10.432723692357744 0 0 0
90 1 7.668573248846923 2.951635209930146 10.432723687425133 0 0 0
102 1 3.8342867511507497 2.213726465485317 12.522695906931354 0 0 0
105 1 5.112382248849338 2.234969044203288e-07 12.522695902310469 0 0 0
106 1 6.390477751150749 2.213726465485317 12.522695906931354 0 0 0
109 1 7.668573248849339 2.2349690443913002e-07 12.522695902310469 0 0 0
74 1 8.946668751299717 3.6895439302015367 8.345595791433354 0 0 0
77 1 10.224764248700284 1.475817690286364 8.345595780251095 0 0 0
93 1 8.946668751153116 0.7379089451213717 10.432723692357744 0 0 0
94 1 10.224764248846924 2.951635209930147 10.432723687425135 0 0 0
110 1 8.94666875115075 2.213726465485317 12.522695906931354 0 0 0
78 1 11.502859751299717 3.689543930201537 8.345595791433354 0 0 0
67 1 5.1123822487003 5.903270198318326 8.345595788136752 0 0 0
68 1 6.390477751299677 8.11699643807561 8.345595790900708 0 0 0
71 1 7.668573248700299 5.903270198318325 8.345595788136752 0 0 0
83 1 3.8342867511530865 5.165361449645783 10.432723690450235 0 0 0
84 1 5.112382248846859 7.379087700731109 10.432723685350485 0 0 0
87 1 6.390477751153085 5.165361449645782 10.432723690450235 0 0 0
88 1 7.66857324884686 7.379087700731109 10.432723685350485 0 0 0
100 1 3.83428675115063 6.6411789647646735 12.522695904149542 0 0 0
103 1 5.112382248849299 4.427452711331087 12.522695896861201 0 0 0
104 1 6.39047775115063 6.6411789647646735 12.522695904149542 0 0 0
107 1 7.668573248849299 4.427452711331086 12.522695896861201 0 0 0
72 1 8.946668751299677 8.11699643807561 8.345595790900708 0 0 0
75 1 10.2247642487003 5.903270198318325 8.345595788136752 0 0 0
91 1 8.946668751153087 5.165361449645782 10.432723690450235 0 0 0
92 1 10.22476424884686 7.379087700731109 10.432723685350485 0 0 0
108 1 8.94666875115063 6.641178964764673 12.522695904149542 0 0 0
111 1 10.224764248849297 4.427452711331087 12.522695896861203 0 0 0
76 1 11.502859751299676 8.11699643807561 8.345595790900706 0 0 0
79 1 12.780955248700298 5.903270198318325 8.345595788136752 0 0 0
80 1 14.059050751299676 8.11699643807561 8.345595790900708 0 0 0
95 1 11.502859751153085 5.165361449645782 10.432723690450235 0 0 0
96 1 12.780955248846858 7.379087700731109 10.432723685350485 0 0 0
99 1 2.556191248849299 4.427452711331087 12.522695896861201 0 0 0
112 1 11.502859751150629 6.641178964764673 12.522695904149543 0 0 0
113 1 2.556191248633483 1.4758177581183591 14.60984858577873 0 0 0
114 1 3.8342867513665557 3.6895439991890018 14.609848585778767 0 0 0
117 1 5.112382248633481 1.475817758118359 14.60984858577873 0 0 0
118 1 6.390477751366555 3.6895439991890018 14.609848585778767 0 0 0
121 1 7.668573248633482 1.4758177581183598 14.60984858577873 0 0 0
122 1 8.946668751366554 3.6895439991890018 14.609848585778767 0 0 0
125 1 10.22476424863348 1.4758177581183594 14.60984858577873 0 0 0
126 1 11.502859751366556 3.689543999189002 14.609848585778767 0 0 0
115 1 5.112382248633365 5.9032702637854895 14.609848585778735 0 0 0
116 1 6.390477751366641 8.11699649649089 14.609848585778783 0 0 0
119 1 7.668573248633365 5.9032702637854895 14.609848585778735 0 0 0
120 1 8.946668751366643 8.11699649649089 14.609848585778781 0 0 0
123 1 10.224764248633363 5.9032702637854895 14.609848585778735 0 0 0
124 1 11.502859751366639 8.11699649649089 14.609848585778783 0 0 0
127 1 12.780955248633363 5.9032702637854895 14.609848585778735 0 0 0
128 1 14.059050751366643 8.11699649649089 14.609848585778783 0 0 0

Velocities

1 0 0 0
2 0 0 0
5 0 0 0
17 0 0 0
18 0 0 0
33 0 0 0
6 0 0 0
9 0 0 0
10 0 0 0
13 0 0 0
21 0 0 0
22 0 0 0
25 0 0 0
26 0 0 0
34 0 0 0
37 0 0 0
38 0 0 0
41 0 0 0
14 0 0 0
29 0 0 0
30 0 0 0
42 0 0 0
45 0 0 0
46 0 0 0
4 0 0 0
7 0 0 0
8 0 0 0
11 0 0 0
19 0 0 0
20 0 0 0
23 0 0 0
24 0 0 0
35 0 0 0
36 0 0 0
39 0 0 0
12 0 0 0
15 0 0 0
27 0 0 0
28 0 0 0
40 0 0 0
43 0 0 0
3 0 0 0
16 0 0 0
31 0 0 0
32 0 0 0
44 0 0 0
47 0 0 0
48 0 0 0
49 0 0 0
50 0 0 0
53 0 0 0
54 0 0 0
57 0 0 0
58 0 0 0
61 0 0 0
62 0 0 0
51 0 0 0
52 0 0 0
55 0 0 0
56 0 0 0
59 0 0 0
60 0 0 0
63 0 0 0
64 0 0 0
65 0 0 0
81 0 0 0
82 0 0 0
97 0 0 0
98 0 0 0
101 0 0 0
66 0 0 0
69 0 0 0
70 0 0 0
73 0 0 0
85 0 0 0
86 0 0 0
89 0 0 0
90 0 0 0
102 0 0 0
105 0 0 0
106 0 0 0
109 0 0 0
74 0 0 0
77 0 0 0
93 0 0 0
94 0 0 0
110 0 0 0
78 0 0 0
67 0 0 0
68 0 0 0
71 0 0 0
83 0 0 0
84 0 0 0
87 0 0 0
88 0 0 0
100 0 0 0
103 0 0 0
104 0 0 0
107 0 0 0
72 0 0 0
75 0 0 0
91 0 0 0
92 0 0 0
108 0 0 0
111 0 0 0
76 0 0 0
79 0 0 0
80 0 0 0
95 0 0 0
96 0 0 0
99 0 0 0
112 0 0 0
113 0 0 0
114 0 0 0
117 0 0 0
118 0 0 0
121 0 0 0
122 0 0 0
125 0 0 0
126 0 0 0
115 0 0 0
116 0 0 0
119 0 0 0
120 0 0 0
123 0 0 0
124 0 0 0
127 0 0 0
128 0 0 0
