LAMMPS data file via write_data, version 22 Jul 2025, timestep = 2, units = metal

128 atoms
3 atom types

0 10.224764 xlo xhi
0 8.854905 ylo yhi
0 16.69697 zlo zhi
5.112382 0 0 xy xz yz

Masses

1 63.55
2 63.55
3 63.55

Atoms # atomic

1 1 2.478277215128185e-07 2.3216383086851027e-07 16.696969735366906 0 0 -1
2 1 1.2780957521724814 2.2137263307237904 16.696969724817382 0 0 -1
5 1 2.556191247827721 2.3216383074138603e-07 16.696969735366906 0 0 -1
17 1 2.5561912485055087 1.4758177274677444 2.088548964344691 0 0 0
33 1 2.479517419270839e-07 2.703488654029041e-07 4.174242233905116 0 0 0
34 1 1.2780957520484748 2.213726334298032 4.1742422339050975 0 0 0
37 1 2.5561912479517415 2.7034886568090167e-07 4.174242233905116 0 0 0
6 1 3.8342867521724804 2.2137263307237918 16.696969724817382 0 0 -1
9 1 5.112382247827721 2.321638308572717e-07 16.696969735366906 0 0 -1
10 1 6.390477752172481 2.213726330723791 16.696969724817382 0 0 -1
13 1 7.66857324782772 2.321638305116111e-07 16.696969735366906 0 0 -1
18 1 3.834286751494569 3.689544148022241 2.0885489697949517 0 0 0
21 1 5.112382248505508 1.4758177274677442 2.088548964344691 0 0 0
22 1 6.3904777514945685 3.689544148022241 2.0885489697949517 0 0 0
25 1 7.668573248505508 1.4758177274677444 2.088548964344691 0 0 0
38 1 3.834286752048474 2.2137263342980322 4.1742422339050975 0 0 0
41 1 5.112382247951741 2.7034886554506723e-07 4.174242233905116 0 0 0
42 1 6.390477752048475 2.213726334298032 4.174242233905097 0 0 0
45 1 7.66857324795174 2.703488654957955e-07 4.174242233905116 0 0 0
14 1 8.946668752172481 2.213726330723792 16.696969724817382 0 0 -1
26 1 8.946668751494569 3.689544148022241 2.0885489697949517 0 0 0
29 1 10.224764248505508 1.4758177274677444 2.088548964344691 0 0 0
46 1 8.946668752048474 2.213726334298032 4.1742422339050975 0 0 0
30 1 11.502859751494567 3.689544148022241 2.088548969794952 0 0 0
4 1 3.834286752172288 6.641178846916418 16.696969740114994 0 0 -1
7 1 5.11238224782756 4.427452742057723 16.696969751322424 0 0 -1
8 1 6.390477752172289 6.641178846916419 16.696969740114994 0 0 -1
11 1 7.668573247827561 4.427452742057723 16.696969751322424 0 0 -1
19 1 5.112382248505222 5.903270215885279 2.088548975287013 0 0 0
20 1 6.390477751494708 8.116996663686994 2.0885489583553847 0 0 0
23 1 7.668573248505221 5.903270215885278 2.0885489752870128 0 0 0
36 1 3.8342867520483153 6.641178853505728 4.174242233905034 0 0 0
39 1 5.112382247951468 4.427452783457099 4.174242233905336 0 0 0
40 1 6.390477752048315 6.641178853505729 4.174242233905033 0 0 0
43 1 7.668573247951468 4.427452783457099 4.174242233905336 0 0 0
12 1 8.94666875217229 6.641178846916418 16.696969740114994 0 0 -1
15 1 10.224764247827562 4.427452742057723 16.696969751322424 0 0 -1
24 1 8.946668751494709 8.116996663686994 2.0885489583553847 0 0 0
27 1 10.22476424850522 5.903270215885278 2.088548975287013 0 0 0
44 1 8.946668752048316 6.641178853505728 4.174242233905034 0 0 0
47 1 10.224764247951468 4.427452783457099 4.174242233905336 0 0 0
3 1 2.5561912478275604 4.427452742057723 16.696969751322424 0 0 -1
16 1 11.502859752172288 6.641178846916419 16.696969740114998 0 0 -1
28 1 11.502859751494707 8.116996663686994 2.0885489583553847 0 0 0
31 1 12.780955248505219 5.903270215885278 2.0885489752870128 0 0 0
32 1 14.059050751494707 8.116996663686994 2.088548958355385 0 0 0
35 1 2.556191247951468 4.427452783457099 4.174242233905336 0 0 0
48 1 11.502859752048316 6.641178853505728 4.174242233905034 0 0 0
49 1 2.5561912485054124 1.4758177274679218 6.259936063844782 0 0 0
50 1 3.8342867514946652 3.6895441480222124 6.259936058394789 0 0 0
53 1 5.112382248505412 1.4758177274679218 6.2599360638447825 0 0 0
54 1 6.390477751494664 3.689544148022213 6.25993605839479 0 0 0
57 1 7.668573248505413 1.4758177274679223 6.2599360638447825 0 0 0
58 1 8.946668751494663 3.6895441480222124 6.25993605839479 0 0 0
61 1 10.22476424850541 1.475817727467922 6.259936063844782 0 0 0
62 1 11.502859751494665 3.689544148022213 6.259936058394789 0 0 0
51 1 5.112382248505123 5.903270215885582 6.259936052901944 0 0 0
52 1 6.390477751494806 8.116996663686828 6.2599360698341036 0 0 0
55 1 7.6685732485051235 5.903270215885583 6.259936052901944 0 0 0
56 1 8.946668751494805 8.116996663686827 6.2599360698341036 0 0 0
59 1 10.224764248505124 5.903270215885583 6.259936052901944 0 0 0
60 1 11.502859751494803 8.116996663686827 6.2599360698341036 0 0 0
63 1 12.780955248505125 5.903270215885583 6.259936052901944 0 0 0
64 1 14.059050751494807 8.116996663686827 6.2599360698341036 0 0 0
65 1 2.478277214684269e-07 2.3216376642243138e-07 8.34848474044391 0 0 0
66 1 1.2780957521724816 2.213726330723802 8.348484750993586 0 0 0
69 1 2.556191247827721 2.3216376623464172e-07 8.348484740443912 0 0 0
81 1 1.2780957514946092 0.7379088055478116 10.437033970591141 0 0 0
82 1 2.5561912485054297 2.951635161932069 10.43703396403916 0 0 0
97 1 2.479516479264776e-07 1.9180635052350137e-07 12.522727233905123 0 0 0
98 1 1.2780957520485403 2.2137263265885943 12.5227272339052 0 0 0
101 1 2.556191247951648 1.9180635028270946e-07 12.522727233905123 0 0 0
70 1 3.834286752172481 2.213726330723802 8.348484750993586 0 0 0
73 1 5.112382247827721 2.32163766525438e-07 8.34848474044391 0 0 0
74 1 6.390477752172481 2.2137263307238015 8.348484750993586 0 0 0
77 1 7.66857324782772 2.3216376650988153e-07 8.348484740443912 0 0 0
85 1 3.834286751494609 0.7379088055478109 10.437033970591141 0 0 0
86 1 5.11238224850543 2.9516351619320704 10.43703396403916 0 0 0
89 1 6.39047775149461 0.7379088055478109 10.437033970591141 0 0 0
90 1 7.668573248505431 2.95163516193207 10.43703396403916 0 0 0
102 1 3.8342867520485395 2.2137263265885943 12.522727233905199 0 0 0
105 1 5.112382247951648 1.9180635025661712e-07 12.52272723390512 0 0 0
106 1 6.390477752048541 2.2137263265885943 12.5227272339052 0 0 0
109 1 7.668573247951648 1.9180634978095182e-07 12.522727233905123 0 0 0
78 1 8.946668752172481 2.213726330723802 8.348484750993586 0 0 0
93 1 8.946668751494608 0.7379088055478114 10.437033970591141 0 0 0
94 1 10.224764248505432 2.95163516193207 10.43703396403916 0 0 0
110 1 8.94666875204854 2.2137263265885943 12.522727233905199 0 0 0
68 1 3.8342867521722885 6.641178846916447 8.348484735695457 0 0 0
71 1 5.11238224782756 4.427452742057667 8.348484724488845 0 0 0
72 1 6.390477752172289 6.641178846916447 8.348484735695457 0 0 0
75 1 7.66857324782756 4.427452742057667 8.348484724488845 0 0 0
83 1 3.8342867514946346 5.165361298258512 10.437033958449998 0 0 0
84 1 5.112382248505214 7.3790876747368985 10.437033974701732 0 0 0
87 1 6.390477751494634 5.165361298258512 10.437033958449998 0 0 0
88 1 7.668573248505213 7.379087674736898 10.437033974701732 0 0 0
100 1 3.834286752048315 6.641178840235053 12.522727233905027 0 0 0
103 1 5.112382247951601 4.427452704961375 12.522727233905234 0 0 0
104 1 6.390477752048315 6.641178840235053 12.522727233905027 0 0 0
107 1 7.668573247951601 4.427452704961374 12.522727233905234 0 0 0
76 1 8.94666875217229 6.641178846916447 8.348484735695457 0 0 0
79 1 10.22476424782756 4.427452742057667 8.348484724488845 0 0 0
91 1 8.946668751494634 5.165361298258512 10.437033958449998 0 0 0
92 1 10.224764248505213 7.379087674736898 10.437033974701732 0 0 0
108 1 8.946668752048316 6.641178840235053 12.522727233905027 0 0 0
111 1 10.224764247951601 4.427452704961374 12.522727233905234 0 0 0
67 1 2.5561912478275612 4.427452742057667 8.348484724488845 0 0 0
80 1 11.502859752172286 6.641178846916447 8.348484735695457 0 0 0
95 1 11.502859751494634 5.165361298258512 10.437033958449998 0 0 0
96 1 12.780955248505212 7.3790876747368985 10.437033974701732 0 0 0
99 1 2.556191247951601 4.427452704961374 12.522727233905234 0 0 0
112 1 11.502859752048314 6.641178840235053 12.522727233905027 0 0 0
113 1 1.2780957514947051 0.7379088055478786 14.608421057598342 0 0 0
114 1 2.5561912485053355 2.951635161932056 14.60842106415058 0 0 0
117 1 3.8342867514947043 0.7379088055478795 14.608421057598342 0 0 0
118 1 5.112382248505335 2.951635161932056 14.60842106415058 0 0 0
121 1 6.390477751494704 0.7379088055478794 14.608421057598342 0 0 0
122 1 7.668573248505336 2.9516351619320553 14.60842106415058 0 0 0
125 1 8.946668751494705 0.7379088055478786 14.608421057598342 0 0 0
126 1 10.224764248505336 2.9516351619320553 14.60842106415058 0 0 0
115 1 3.8342867514947296 5.165361298258686 14.608421069739203 0 0 0
116 1 5.112382248505117 7.379087674736734 14.608421053487504 0 0 0
119 1 6.39047775149473 5.165361298258686 14.608421069739203 0 0 0
120 1 7.668573248505117 7.379087674736733 14.608421053487504 0 0 0
123 1 8.94666875149473 5.165361298258686 14.608421069739205 0 0 0
124 1 10.22476424850512 7.379087674736734 14.608421053487504 0 0 0
127 1 11.502859751494729 5.165361298258686 14.608421069739203 0 0 0
128 1 12.780955248505116 7.379087674736733 14.608421053487504 0 0 0

Velocities

1 0 0 0
2 0 0 0
5 0 0 0
17 0 0 0
33 0 0 0
34 0 0 0
37 0 0 0
6 0 0 0
9 0 0 0
10 0 0 0
13 0 0 0
18 0 0 0
21 0 0 0
22 0 0 0
25 0 0 0
38 0 0 0
41 0 0 0
42 0 0 0
45 0 0 0
14 0 0 0
26 0 0 0
29 0 0 0
46 0 0 0
30 0 0 0
4 0 0 0
7 0 0 0
8 0 0 0
11 0 0 0
19 0 0 0
20 0 0 0
23 0 0 0
36 0 0 0
39 0 0 0
40 0 0 0
43 0 0 0
12 0 0 0
15 0 0 0
24 0 0 0
27 0 0 0
44 0 0 0
47 0 0 0
3 0 0 0
16 0 0 0
28 0 0 0
31 0 0 0
32 0 0 0
35 0 0 0
48 0 0 0
49 0 0 0
50 0 0 0
53 0 0 0
54 0 0 0
57 0 0 0
58 0 0 0
61 0 0 0
62 0 0 0
51 0 0 0
52 0 0 0
55 0 0 0
56 0 0 0
59 0 0 0
60 0 0 0
63 0 0 0
64 0 0 0
65 0 0 0
66 0 0 0
69 0 0 0
81 0 0 0
82 0 0 0
97 0 0 0
98 0 0 0
101 0 0 0
70 0 0 0
73 0 0 0
74 0 0 0
77 0 0 0
85 0 0 0
86 0 0 0
89 0 0 0
90 0 0 0
102 0 0 0
105 0 0 0
106 0 0 0
109 0 0 0
78 0 0 0
93 0 0 0
94 0 0 0
110 0 0 0
68 0 0 0
71 0 0 0
72 0 0 0
75 0 0 0
83 0 0 0
84 0 0 0
87 0 0 0
88 0 0 0
100 0 0 0
103 0 0 0
104 0 0 0
107 0 0 0
76 0 0 0
79 0 0 0
91 0 0 0
92 0 0 0
108 0 0 0
111 0 0 0
67 0 0 0
80 0 0 0
95 0 0 0
96 0 0 0
99 0 0 0
112 0 0 0
113 0 0 0
114 0 0 0
117 0 0 0
118 0 0 0
121 0 0 0
122 0 0 0
125 0 0 0
126 0 0 0
115 0 0 0
116 0 0 0
119 0 0 0
120 0 0 0
123 0 0 0
124 0 0 0
127 0 0 0
128 0 0 0
