LAMMPS data file via write_data, version 22 Jul 2025, timestep = 1, units = metal

128 atoms
3 atom types

0 10.224764 xlo xhi
0 8.854905 ylo yhi
0 16.69697 zlo zhi
5.112382 0 0 xy xz yz

Masses

1 63.55
2 63.55
3 63.55

Atoms # atomic

1 1 2.556191161901858 1.4758179273483076 7.641205038249076e-09 0 0 0
17 1 1.631207495266079e-07 7.150446308357214e-08 2.087121000250294 0 0 0
18 1 1.278095836879444 2.213726342903893 2.087121000250292 0 0 0
21 1 2.5561911631207503 7.150446292032848e-08 2.087121000250294 0 0 0
33 1 2.5561911619016713 1.475817927348463 4.17424235663894 0 0 0
2 1 3.8342868380982074 3.6895439447173093 1.0254530581655698e-07 0 0 0
5 1 5.112382161901857 1.4758179273483074 7.641205042105225e-09 0 0 0
6 1 6.3904778380982075 3.6895439447173093 1.0254530580000767e-07 0 0 0
9 1 7.668573161901857 1.4758179273483076 7.641205397352977e-09 0 0 0
22 1 3.8342868368794445 2.2137263429038927 2.087121000250292 0 0 0
25 1 5.11238216312075 7.150446334402288e-08 2.087121000250294 0 0 0
26 1 6.390477836879443 2.2137263429038927 2.087121000250292 0 0 0
29 1 7.668573163120748 7.150446290908138e-08 2.087121000250294 0 0 0
34 1 3.834286838098394 3.689543944717469 4.174242261734839 0 0 0
37 1 5.112382161901671 1.475817927348463 4.17424235663894 0 0 0
38 1 6.390477838098395 3.689543944717469 4.174242261734839 0 0 0
41 1 7.668573161901671 1.475817927348463 4.17424235663894 0 0 0
10 1 8.946668838098207 3.6895439447173093 1.0254530548316074e-07 0 0 0
13 1 10.224764161901858 1.4758179273483074 7.641204912281534e-09 0 0 0
30 1 8.946668836879445 2.2137263429038927 2.087121000250292 0 0 0
42 1 8.946668838098393 3.689543944717469 4.174242261734839 0 0 0
45 1 10.22476416190167 1.4758179273484628 4.17424235663894 0 0 0
14 1 11.502859838098207 3.6895439447173093 1.0254530622016727e-07 0 0 0
46 1 11.502859838098392 3.689543944717469 4.174242261734839 0 0 0
3 1 5.112382161901596 5.9032703350919595 16.69696992274767 0 0 -1
4 1 6.390477838098339 8.116996660026564 1.571962059115013e-08 0 0 0
7 1 7.668573161901596 5.9032703350919595 16.69696992274767 0 0 -1
20 1 3.83428683687938 6.641179040954466 2.0871210002503093 0 0 0
23 1 5.112382163120426 4.427452649906538 2.0871210002503107 0 0 0
24 1 6.390477836879381 6.641179040954465 2.0871210002503093 0 0 0
27 1 7.668573163120426 4.427452649906538 2.0871210002503107 0 0 0
35 1 5.112382161901408 5.903270335091829 4.174242441532024 0 0 0
36 1 6.390477838098526 8.116996660026738 4.174242348560507 0 0 0
39 1 7.668573161901409 5.903270335091829 4.174242441532024 0 0 0
8 1 8.94666883809834 8.116996660026564 1.571962060014781e-08 0 0 0
11 1 10.224764161901593 5.9032703350919595 16.69696992274767 0 0 -1
28 1 8.94666883687938 6.641179040954466 2.0871210002503093 0 0 0
31 1 10.224764163120426 4.427452649906538 2.0871210002503107 0 0 0
40 1 8.946668838098525 8.116996660026738 4.174242348560507 0 0 0
43 1 10.224764161901408 5.903270335091829 4.174242441532025 0 0 0
12 1 11.502859838098338 8.116996660026564 1.5719620503583407e-08 0 0 0
15 1 12.780955161901595 5.9032703350919595 16.69696992274767 0 0 -1
16 1 14.059050838098338 8.116996660026564 1.5719620510170994e-08 0 0 0
19 1 2.5561911631204275 4.427452649906538 2.0871210002503107 0 0 0
32 1 11.50285983687938 6.641179040954465 2.0871210002503093 0 0 0
44 1 11.502859838098523 8.116996660026738 4.174242348560507 0 0 0
47 1 12.780955161901407 5.903270335091829 4.174242441532025 0 0 0
48 1 14.059050838098525 8.116996660026738 4.174242348560507 0 0 0
49 1 1.2780958368795639 0.7379090721430304 6.261363635469563 0 0 0
50 1 2.5561911631204364 2.9516350712664865 6.261363635469545 0 0 0
53 1 3.834286836879564 0.7379090721430308 6.261363635469563 0 0 0
54 1 5.112382163120436 2.9516350712664856 6.261363635469545 0 0 0
57 1 6.390477836879565 0.7379090721430308 6.261363635469563 0 0 0
58 1 7.668573163120437 2.9516350712664865 6.261363635469545 0 0 0
61 1 8.946668836879564 0.7379090721430308 6.261363635469563 0 0 0
62 1 10.224764163120435 2.951635071266485 6.261363635469545 0 0 0
51 1 3.83428683687976 5.165361339261492 6.26136363546956 0 0 0
52 1 5.112382163120239 7.37908767769099 6.26136363547001 0 0 0
55 1 6.390477836879761 5.165361339261491 6.26136363546956 0 0 0
56 1 7.668573163120238 7.37908767769099 6.26136363547001 0 0 0
59 1 8.94666883687976 5.165361339261491 6.26136363546956 0 0 0
60 1 10.224764163120238 7.37908767769099 6.26136363547001 0 0 0
63 1 11.502859836879761 5.165361339261492 6.26136363546956 0 0 0
64 1 12.780955163120238 7.379087677690989 6.26136363547001 0 0 0
65 1 2.556191161901858 1.4758179273483076 8.348485007641205 0 0 0
81 1 1.6312074952885737e-07 7.150446307714522e-08 10.435606000250294 0 0 0
82 1 1.278095836879444 2.213726342903893 10.435606000250292 0 0 0
85 1 2.5561911631207503 7.150446292804077e-08 10.435606000250294 0 0 0
97 1 2.5561911619016713 1.475817927348463 12.52272735663894 0 0 0
66 1 3.834286838098207 3.68954394471731 8.348485102545304 0 0 0
69 1 5.112382161901857 1.4758179273483076 8.348485007641205 0 0 0
70 1 6.3904778380982075 3.6895439447173093 8.348485102545304 0 0 0
73 1 7.668573161901857 1.4758179273483076 8.348485007641205 0 0 0
86 1 3.8342868368794445 2.2137263429038927 10.435606000250292 0 0 0
89 1 5.11238216312075 7.150446334145212e-08 10.435606000250294 0 0 0
90 1 6.390477836879443 2.2137263429038927 10.435606000250292 0 0 0
93 1 7.668573163120748 7.150446291133079e-08 10.435606000250294 0 0 0
98 1 3.834286838098394 3.689543944717469 12.52272726173484 0 0 0
101 1 5.112382161901671 1.475817927348463 12.52272735663894 0 0 0
102 1 6.390477838098395 3.689543944717469 12.52272726173484 0 0 0
105 1 7.668573161901671 1.475817927348463 12.52272735663894 0 0 0
74 1 8.946668838098207 3.6895439447173093 8.348485102545304 0 0 0
77 1 10.224764161901858 1.4758179273483074 8.348485007641205 0 0 0
94 1 8.946668836879445 2.2137263429038927 10.435606000250292 0 0 0
106 1 8.946668838098393 3.689543944717469 12.52272726173484 0 0 0
109 1 10.22476416190167 1.4758179273484628 12.52272735663894 0 0 0
78 1 11.502859838098207 3.6895439447173093 8.348485102545304 0 0 0
110 1 11.502859838098392 3.689543944717469 12.522727261734838 0 0 0
67 1 5.112382161901596 5.9032703350919595 8.348484922747671 0 0 0
68 1 6.390477838098338 8.116996660026562 8.348485015719621 0 0 0
71 1 7.668573161901596 5.9032703350919595 8.348484922747671 0 0 0
84 1 3.83428683687938 6.641179040954466 10.43560600025031 0 0 0
87 1 5.112382163120426 4.427452649906538 10.43560600025031 0 0 0
88 1 6.390477836879381 6.641179040954465 10.43560600025031 0 0 0
91 1 7.668573163120426 4.427452649906538 10.43560600025031 0 0 0
99 1 5.112382161901408 5.903270335091829 12.522727441532025 0 0 0
100 1 6.390477838098526 8.116996660026738 12.522727348560506 0 0 0
103 1 7.668573161901409 5.903270335091829 12.522727441532025 0 0 0
72 1 8.94666883809834 8.116996660026564 8.348485015719621 0 0 0
75 1 10.224764161901593 5.9032703350919595 8.348484922747671 0 0 0
92 1 8.94666883687938 6.641179040954466 10.43560600025031 0 0 0
95 1 10.224764163120426 4.427452649906538 10.43560600025031 0 0 0
104 1 8.946668838098525 8.116996660026738 12.522727348560506 0 0 0
107 1 10.224764161901408 5.903270335091829 12.522727441532025 0 0 0
76 1 11.502859838098338 8.116996660026564 8.348485015719621 0 0 0
79 1 12.780955161901595 5.9032703350919595 8.348484922747671 0 0 0
80 1 14.059050838098338 8.116996660026564 8.348485015719621 0 0 0
83 1 2.5561911631204275 4.427452649906538 10.43560600025031 0 0 0
96 1 11.50285983687938 6.641179040954465 10.43560600025031 0 0 0
108 1 11.502859838098523 8.116996660026738 12.522727348560508 0 0 0
111 1 12.780955161901407 5.903270335091829 12.522727441532025 0 0 0
112 1 14.059050838098525 8.116996660026738 12.522727348560508 0 0 0
113 1 1.2780958368795643 0.7379090721430304 14.609848635469563 0 0 0
114 1 2.5561911631204364 2.9516350712664865 14.609848635469545 0 0 0
117 1 3.834286836879564 0.7379090721430308 14.609848635469563 0 0 0
118 1 5.112382163120436 2.9516350712664856 14.609848635469545 0 0 0
121 1 6.390477836879565 0.7379090721430308 14.609848635469563 0 0 0
122 1 7.668573163120437 2.9516350712664865 14.609848635469545 0 0 0
125 1 8.946668836879564 0.7379090721430308 14.609848635469563 0 0 0
126 1 10.224764163120435 2.9516350712664856 14.609848635469545 0 0 0
115 1 3.83428683687976 5.165361339261492 14.609848635469561 0 0 0
116 1 5.112382163120239 7.37908767769099 14.60984863547001 0 0 0
119 1 6.390477836879761 5.165361339261492 14.609848635469561 0 0 0
120 1 7.668573163120238 7.37908767769099 14.60984863547001 0 0 0
123 1 8.94666883687976 5.165361339261491 14.609848635469561 0 0 0
124 1 10.224764163120238 7.37908767769099 14.60984863547001 0 0 0
127 1 11.502859836879757 5.165361339261492 14.609848635469561 0 0 0
128 1 12.780955163120238 7.379087677690989 14.60984863547001 0 0 0

Velocities

1 0 0 0
17 0 0 0
18 0 0 0
21 0 0 0
33 0 0 0
2 0 0 0
5 0 0 0
6 0 0 0
9 0 0 0
22 0 0 0
25 0 0 0
26 0 0 0
29 0 0 0
34 0 0 0
37 0 0 0
38 0 0 0
41 0 0 0
10 0 0 0
13 0 0 0
30 0 0 0
42 0 0 0
45 0 0 0
14 0 0 0
46 0 0 0
3 0 0 0
4 0 0 0
7 0 0 0
20 0 0 0
23 0 0 0
24 0 0 0
27 0 0 0
35 0 0 0
36 0 0 0
39 0 0 0
8 0 0 0
11 0 0 0
28 0 0 0
31 0 0 0
40 0 0 0
43 0 0 0
12 0 0 0
15 0 0 0
16 0 0 0
19 0 0 0
32 0 0 0
44 0 0 0
47 0 0 0
48 0 0 0
49 0 0 0
50 0 0 0
53 0 0 0
54 0 0 0
57 0 0 0
58 0 0 0
61 0 0 0
62 0 0 0
51 0 0 0
52 0 0 0
55 0 0 0
56 0 0 0
59 0 0 0
60 0 0 0
63 0 0 0
64 0 0 0
65 0 0 0
81 0 0 0
82 0 0 0
85 0 0 0
97 0 0 0
66 0 0 0
69 0 0 0
70 0 0 0
73 0 0 0
86 0 0 0
89 0 0 0
90 0 0 0
93 0 0 0
98 0 0 0
101 0 0 0
102 0 0 0
105 0 0 0
74 0 0 0
77 0 0 0
94 0 0 0
106 0 0 0
109 0 0 0
78 0 0 0
110 0 0 0
67 0 0 0
68 0 0 0
71 0 0 0
84 0 0 0
87 0 0 0
88 0 0 0
91 0 0 0
99 0 0 0
100 0 0 0
103 0 0 0
72 0 0 0
75 0 0 0
92 0 0 0
95 0 0 0
104 0 0 0
107 0 0 0
76 0 0 0
79 0 0 0
80 0 0 0
83 0 0 0
96 0 0 0
108 0 0 0
111 0 0 0
112 0 0 0
113 0 0 0
114 0 0 0
117 0 0 0
118 0 0 0
121 0 0 0
122 0 0 0
125 0 0 0
126 0 0 0
115 0 0 0
116 0 0 0
119 0 0 0
120 0 0 0
123 0 0 0
124 0 0 0
127 0 0 0
128 0 0 0
