LAMMPS data file via write_data, version 22 Jul 2025, timestep = 4, units = metal

128 atoms
3 atom types

0 10.224764 xlo xhi
0 8.854905 ylo yhi
0 16.69697 zlo zhi
5.112382 0 0 xy xz yz

Masses

1 63.55
2 63.55
3 63.55

Atoms # atomic

1 1 2.607917319030376e-07 2.1092167585848946e-07 0.0007116005280173822 0 0 0
2 1 1.2780957392085142 2.213726467622012 0.000711588527083222 0 0 0
5 1 2.5561912607917314 2.1092167586970516e-07 0.0007116005280178636 0 0 0
17 1 1.2780957389129735 0.7379089449385192 2.089257224093106 0 0 0
18 1 2.556191261087093 2.951635204254331 2.089257239397201 0 0 0
33 1 2.5561912612925366 1.4758177338853706 4.177847027250766 0 0 0
6 1 3.8342867392085145 2.213726467622012 0.0007115885270834627 0 0 0
9 1 5.1123822607917315 2.1092167573847654e-07 0.0007116005280176248 0 0 0
10 1 6.390477739208515 2.2137264676220116 0.0007115885270828604 0 0 0
13 1 7.668573260791732 2.1092167594697238e-07 0.0007116005280179655 0 0 0
21 1 3.834286738912973 0.737908944938519 2.089257224093106 0 0 0
22 1 5.1123822610870935 2.9516352042543303 2.089257239397201 0 0 0
25 1 6.390477738912973 0.7379089449385187 2.089257224093106 0 0 0
26 1 7.668573261087092 2.9516352042543303 2.089257239397201 0 0 0
34 1 3.83428673870744 3.689543995476235 4.177847005940038 0 0 0
37 1 5.112382261292536 1.4758177338853706 4.177847027250766 0 0 0
38 1 6.390477738707441 3.6895439954762344 4.177847005940038 0 0 0
41 1 7.668573261292536 1.4758177338853706 4.177847027250766 0 0 0
14 1 8.946668739208514 2.2137264676220116 0.0007115885270829772 0 0 0
29 1 8.946668738912972 0.7379089449385187 2.0892572240931067 0 0 0
30 1 10.224764261087092 2.951635204254331 2.0892572393972 0 0 0
42 1 8.94666873870744 3.6895439954762344 4.1778470059400385 0 0 0
45 1 10.224764261292536 1.4758177338853706 4.177847027250766 0 0 0
46 1 11.502859738707441 3.6895439954762344 4.177847005940038 0 0 0
4 1 3.834286739208234 6.6411789413917495 0.0007116030935970465 0 0 0
7 1 5.112382260791589 4.427452706122678 0.0007115918433416323 0 0 0
8 1 6.390477739208235 6.6411789413917495 0.0007116030935970131 0 0 0
11 1 7.6685732607915895 4.427452706122678 0.0007115918433415723 0 0 0
19 1 3.8342867389129065 5.165361462173177 2.089257212025177 0 0 0
20 1 5.112382261086953 7.379087715306507 2.0892572008124324 0 0 0
23 1 6.390477738912907 5.165361462173177 2.089257212025177 0 0 0
24 1 7.668573261086953 7.379087715306507 2.0892572008124324 0 0 0
35 1 5.112382261292373 5.903270208990043 4.177847032387658 0 0 0
36 1 6.390477738707611 8.116996435162624 4.177847021271137 0 0 0
39 1 7.668573261292373 5.903270208990043 4.177847032387658 0 0 0
12 1 8.946668739208235 6.6411789413917495 0.0007116030935971073 0 0 0
15 1 10.224764260791588 4.427452706122678 0.0007115918433413754 0 0 0
27 1 8.946668738912907 5.165361462173177 2.089257212025177 0 0 0
28 1 10.224764261086953 7.379087715306507 2.089257200812433 0 0 0
40 1 8.946668738707611 8.116996435162624 4.177847021271137 0 0 0
43 1 10.224764261292371 5.903270208990043 4.177847032387658 0 0 0
3 1 2.5561912607915893 4.427452706122678 0.0007115918433417811 0 0 0
16 1 11.502859739208237 6.6411789413917495 0.0007116030935973975 0 0 0
31 1 11.502859738912905 5.165361462173177 2.089257212025177 0 0 0
32 1 12.780955261086955 7.3790877153065075 2.0892572008124324 0 0 0
44 1 11.50285973870761 8.116996435162624 4.177847021271137 0 0 0
47 1 12.780955261292371 5.903270208990044 4.177847032387658 0 0 0
48 1 14.05905073870761 8.116996435162624 4.177847021271137 0 0 0
49 1 2.607599907039992e-07 2.2219553741933266e-07 6.26353362900334 0 0 0
50 1 1.2780957392403225 2.213726494138759 6.263533604877542 0 0 0
53 1 2.5561912607599906 2.2219553783096688e-07 6.26353362900334 0 0 0
54 1 3.834286739240323 2.213726494138759 6.263533604877542 0 0 0
57 1 5.112382260759991 2.2219553795693383e-07 6.26353362900334 0 0 0
58 1 6.390477739240321 2.213726494138759 6.263533604877542 0 0 0
61 1 7.668573260759991 2.2219553772128188e-07 6.26353362900334 0 0 0
62 1 8.946668739240321 2.213726494138759 6.263533604877542 0 0 0
52 1 3.8342867392400155 6.641178955306929 6.263533636841455 0 0 0
55 1 5.112382260759693 4.427452742511312 6.263533604409892 0 0 0
56 1 6.390477739240015 6.641178955306929 6.263533636841455 0 0 0
59 1 7.668573260759693 4.427452742511313 6.263533604409892 0 0 0
60 1 8.946668739240017 6.641178955306929 6.263533636841455 0 0 0
63 1 10.224764260759693 4.427452742511312 6.263533604409891 0 0 0
51 1 2.5561912607596953 4.427452742511312 6.263533604409892 0 0 0
64 1 11.502859739240016 6.641178955306929 6.263533636841455 0 0 0
65 1 2.5561912607600146 1.4758177627688265 8.346314882416948 0 0 0
81 1 2.612925616537471e-07 1.9685780728040556e-07 10.432001474673527 0 0 0
82 1 1.278095738707706 2.2137264771738563 10.432001485321159 0 0 0
85 1 2.5561912612925624 1.96857807573529e-07 10.432001474673527 0 0 0
97 1 1.2780957389129903 0.7379089464432492 12.520591286019933 0 0 0
98 1 2.5561912610870836 2.9516351962849727 12.520591281189287 0 0 0
66 1 3.8342867392400173 3.6895440317746884 8.346314874286028 0 0 0
69 1 5.112382260760015 1.4758177627688267 8.346314882416946 0 0 0
70 1 6.390477739240017 3.6895440317746884 8.346314874286028 0 0 0
73 1 7.668573260760015 1.4758177627688267 8.346314882416948 0 0 0
86 1 3.834286738707707 2.2137264771738563 10.43200148532116 0 0 0
89 1 5.112382261292561 1.9685780759285156e-07 10.432001474673527 0 0 0
90 1 6.390477738707706 2.2137264771738567 10.43200148532116 0 0 0
93 1 7.668573261292561 1.9685780783466146e-07 10.432001474673529 0 0 0
101 1 3.8342867389129904 0.7379089464432494 12.520591286019933 0 0 0
102 1 5.112382261087085 2.9516351962849727 12.520591281189287 0 0 0
105 1 6.390477738912989 0.7379089464432489 12.520591286019933 0 0 0
106 1 7.668573261087085 2.9516351962849723 12.520591281189287 0 0 0
74 1 8.946668739240017 3.6895440317746884 8.346314874286028 0 0 0
77 1 10.224764260760015 1.4758177627688263 8.346314882416946 0 0 0
94 1 8.946668738707707 2.2137264771738563 10.432001485321159 0 0 0
109 1 8.946668738912988 0.7379089464432488 12.520591286019933 0 0 0
110 1 10.224764261087085 2.9516351962849723 12.520591281189287 0 0 0
78 1 11.50285973924002 3.6895440317746884 8.346314874286026 0 0 0
67 1 5.1123822607596985 5.903270251237917 8.346314879312516 0 0 0
68 1 6.390477739240312 8.116996487889894 8.346314898199468 0 0 0
71 1 7.668573260759699 5.903270251237917 8.346314879312516 0 0 0
84 1 3.834286738707373 6.6411789533802015 10.432001468120879 0 0 0
87 1 5.112382261292414 4.427452723204265 10.432001476531239 0 0 0
88 1 6.390477738707373 6.6411789533802015 10.432001468120879 0 0 0
91 1 7.668573261292414 4.427452723204266 10.432001476531239 0 0 0
99 1 3.834286738912918 5.165361465240092 12.520591275982696 0 0 0
100 1 5.112382261086927 7.379087719608019 12.520591272230126 0 0 0
103 1 6.390477738912917 5.165361465240092 12.520591275982696 0 0 0
104 1 7.6685732610869275 7.379087719608019 12.520591272230126 0 0 0
72 1 8.946668739240312 8.116996487889896 8.346314898199466 0 0 0
75 1 10.224764260759699 5.903270251237918 8.346314879312516 0 0 0
92 1 8.946668738707373 6.6411789533802015 10.432001468120879 0 0 0
95 1 10.224764261292416 4.427452723204266 10.432001476531239 0 0 0
107 1 8.94666873891292 5.165361465240092 12.520591275982696 0 0 0
108 1 10.224764261086928 7.379087719608019 12.520591272230128 0 0 0
76 1 11.502859739240314 8.116996487889894 8.346314898199466 0 0 0
79 1 12.780955260759697 5.903270251237918 8.346314879312516 0 0 0
80 1 14.05905073924031 8.116996487889896 8.346314898199466 0 0 0
83 1 2.556191261292415 4.427452723204266 10.432001476531239 0 0 0
96 1 11.502859738707373 6.6411789533802015 10.432001468120879 0 0 0
111 1 11.502859738912917 5.165361465240092 12.520591275982698 0 0 0
112 1 12.780955261086927 7.379087719608019 12.520591272230126 0 0 0
113 1 2.556191260791721 1.4758177186635537 14.60913690366615 0 0 0
114 1 3.834286739208318 3.689543985421834 14.609136871112216 0 0 0
117 1 5.112382260791721 1.4758177186635535 14.60913690366615 0 0 0
118 1 6.390477739208318 3.689543985421834 14.609136871112216 0 0 0
121 1 7.668573260791722 1.4758177186635537 14.60913690366615 0 0 0
122 1 8.946668739208318 3.689543985421834 14.609136871112216 0 0 0
125 1 10.224764260791721 1.4758177186635537 14.60913690366615 0 0 0
126 1 11.502859739208319 3.689543985421834 14.609136871112216 0 0 0
115 1 5.112382260791538 5.903270209934701 14.609136922876148 0 0 0
116 1 6.390477739208421 8.116996433718652 14.609136925759895 0 0 0
119 1 7.668573260791537 5.903270209934701 14.609136922876148 0 0 0
120 1 8.946668739208421 8.116996433718652 14.609136925759895 0 0 0
123 1 10.224764260791538 5.903270209934701 14.609136922876148 0 0 0
124 1 11.502859739208422 8.116996433718652 14.609136925759895 0 0 0
127 1 12.780955260791536 5.903270209934701 14.609136922876148 0 0 0
128 1 14.059050739208422 8.116996433718652 14.609136925759895 0 0 0

Velocities

1 0 0 0
2 0 0 0
5 0 0 0
17 0 0 0
18 0 0 0
33 0 0 0
6 0 0 0
9 0 0 0
10 0 0 0
13 0 0 0
21 0 0 0
22 0 0 0
25 0 0 0
26 0 0 0
34 0 0 0
37 0 0 0
38 0 0 0
41 0 0 0
14 0 0 0
29 0 0 0
30 0 0 0
42 0 0 0
45 0 0 0
46 0 0 0
4 0 0 0
7 0 0 0
8 0 0 0
11 0 0 0
19 0 0 0
20 0 0 0
23 0 0 0
24 0 0 0
35 0 0 0
36 0 0 0
39 0 0 0
12 0 0 0
15 0 0 0
27 0 0 0
28 0 0 0
40 0 0 0
43 0 0 0
3 0 0 0
16 0 0 0
31 0 0 0
32 0 0 0
44 0 0 0
47 0 0 0
48 0 0 0
49 0 0 0
50 0 0 0
53 0 0 0
54 0 0 0
57 0 0 0
58 0 0 0
61 0 0 0
62 0 0 0
52 0 0 0
55 0 0 0
56 0 0 0
59 0 0 0
60 0 0 0
63 0 0 0
51 0 0 0
64 0 0 0
65 0 0 0
81 0 0 0
82 0 0 0
85 0 0 0
97 0 0 0
98 0 0 0
66 0 0 0
69 0 0 0
70 0 0 0
73 0 0 0
86 0 0 0
89 0 0 0
90 0 0 0
93 0 0 0
101 0 0 0
102 0 0 0
105 0 0 0
106 0 0 0
74 0 0 0
77 0 0 0
94 0 0 0
109 0 0 0
110 0 0 0
78 0 0 0
67 0 0 0
68 0 0 0
71 0 0 0
84 0 0 0
87 0 0 0
88 0 0 0
91 0 0 0
99 0 0 0
100 0 0 0
103 0 0 0
104 0 0 0
72 0 0 0
75 0 0 0
92 0 0 0
95 0 0 0
107 0 0 0
108 0 0 0
76 0 0 0
79 0 0 0
80 0 0 0
83 0 0 0
96 0 0 0
111 0 0 0
112 0 0 0
113 0 0 0
114 0 0 0
117 0 0 0
118 0 0 0
121 0 0 0
122 0 0 0
125 0 0 0
126 0 0 0
115 0 0 0
116 0 0 0
119 0 0 0
120 0 0 0
123 0 0 0
124 0 0 0
127 0 0 0
128 0 0 0
