LAMMPS data file via write_data, version 22 Jul 2025, timestep = 4, units = metal

128 atoms
3 atom types

0 10.224764 xlo xhi
0 8.854905 ylo yhi
0 16.69697 zlo zhi
5.112382 0 0 xy xz yz

Masses

1 63.55
2 63.55
3 63.55

Atoms # atomic

1 1 2.5997774413708005e-07 1.7507184639427985e-07 16.69556779875963 0 0 -1
2 1 1.2780957400224113 2.2137264432224124 16.695567810241897 0 0 -1
5 1 2.5561912599777443 1.7507184650205828e-07 16.69556779875963 0 0 -1
17 1 1.2780957395202646 0.737908924267372 2.08572378502212 0 0 0
18 1 2.5561912604797525 2.95163519966311 2.0857238134650418 0 0 0
33 1 2.5561912604796477 1.4758177165181887 4.1756397086835095 0 0 0
6 1 3.834286740022412 2.2137264432224124 16.695567810241897 0 0 -1
9 1 5.112382259977744 1.7507184651386677e-07 16.69556779875963 0 0 -1
10 1 6.390477740022412 2.213726443222412 16.695567810241897 0 0 -1
13 1 7.6685732599777445 1.7507184652782063e-07 16.69556779875963 0 0 -1
21 1 3.8342867395202647 0.7379089242673719 2.08572378502212 0 0 0
22 1 5.112382260479752 2.95163519966311 2.0857238134650418 0 0 0
25 1 6.390477739520263 0.7379089242673721 2.08572378502212 0 0 0
26 1 7.668573260479752 2.95163519966311 2.0857238134650413 0 0 0
34 1 3.834286739520431 3.689544002780916 4.175639691368582 0 0 0
37 1 5.112382260479648 1.4758177165181885 4.1756397086835095 0 0 0
38 1 6.390477739520431 3.6895440027809157 4.175639691368582 0 0 0
41 1 7.668573260479648 1.4758177165181887 4.1756397086835095 0 0 0
14 1 8.946668740022412 2.2137264432224124 16.695567810241897 0 0 -1
29 1 8.946668739520264 0.7379089242673719 2.08572378502212 0 0 0
30 1 10.224764260479754 2.9516351996631096 2.0857238134650413 0 0 0
42 1 8.946668739520431 3.6895440027809157 4.175639691368581 0 0 0
45 1 10.224764260479649 1.4758177165181885 4.1756397086835095 0 0 0
46 1 11.502859739520432 3.6895440027809157 4.175639691368582 0 0 0
4 1 3.8342867400221388 6.641178945977124 16.69556778159441 0 0 -1
7 1 5.11238225997771 4.4274526994422345 16.69556780299848 0 0 -1
8 1 6.390477740022138 6.641178945977123 16.69556778159441 0 0 -1
11 1 7.668573259977711 4.427452699442235 16.69556780299848 0 0 -1
19 1 3.834286739520352 5.165361466010618 2.085723792976037 0 0 0
20 1 5.112382260479514 7.37908771239582 2.085723757064663 0 0 0
23 1 6.390477739520352 5.165361466010618 2.085723792976037 0 0 0
24 1 7.668573260479514 7.379087712395819 2.0857237570646636 0 0 0
35 1 5.112382260479302 5.903270212578447 4.175639738368719 0 0 0
36 1 6.390477739520609 8.116996437946945 4.175639715482483 0 0 0
39 1 7.668573260479302 5.903270212578446 4.175639738368719 0 0 0
12 1 8.94666874002214 6.641178945977123 16.69556778159441 0 0 -1
15 1 10.22476425997771 4.4274526994422345 16.69556780299848 0 0 -1
27 1 8.946668739520353 5.165361466010618 2.085723792976037 0 0 0
28 1 10.224764260479512 7.379087712395819 2.0857237570646636 0 0 0
40 1 8.946668739520609 8.116996437946947 4.175639715482483 0 0 0
43 1 10.2247642604793 5.903270212578447 4.175639738368719 0 0 0
3 1 2.5561912599777106 4.4274526994422345 16.695567802998482 0 0 -1
16 1 11.502859740022139 6.641178945977123 16.69556778159441 0 0 -1
31 1 11.50285973952035 5.1653614660106175 2.085723792976037 0 0 0
32 1 12.780955260479512 7.379087712395819 2.085723757064663 0 0 0
44 1 11.50285973952061 8.116996437946947 4.175639715482483 0 0 0
47 1 12.7809552604793 5.903270212578447 4.175639738368719 0 0 0
48 1 14.059050739520607 8.116996437946947 4.175639715482483 0 0 0
49 1 2.599778522643179e-07 2.2464984979225948e-07 6.26276571385004 0 0 0
50 1 1.2780957400226232 2.2137264843720326 6.262765685166831 0 0 0
53 1 2.5561912599778522 2.246498498330337e-07 6.26276571385004 0 0 0
54 1 3.8342867400226233 2.2137264843720326 6.262765685166831 0 0 0
57 1 5.112382259977854 2.2464985002470173e-07 6.26276571385004 0 0 0
58 1 6.390477740022623 2.213726484372032 6.262765685166831 0 0 0
61 1 7.668573259977852 2.2464985022693215e-07 6.262765713850039 0 0 0
62 1 8.946668740022623 2.2137264843720326 6.262765685166831 0 0 0
52 1 3.834286740022453 6.641178948112077 6.262765720619297 0 0 0
55 1 5.112382259977375 4.427452736551818 6.262765687952567 0 0 0
56 1 6.390477740022453 6.641178948112077 6.262765720619297 0 0 0
59 1 7.668573259977377 4.427452736551818 6.262765687952567 0 0 0
60 1 8.946668740022451 6.641178948112078 6.262765720619297 0 0 0
63 1 10.224764259977373 4.427452736551818 6.262765687952567 0 0 0
51 1 2.5561912599773735 4.427452736551818 6.262765687952567 0 0 0
64 1 11.502859740022455 6.641178948112077 6.262765720619297 0 0 0
65 1 2.556191260332117 1.475817750740687 8.349932445406987 0 0 0
81 1 1.278095740162604 0.7379090194543376 10.437040493409143 0 0 0
82 1 2.556191259837333 2.951635300892789 10.437040508198292 0 0 0
97 1 2.5561912598371697 1.4758176923724124 12.521293010916523 0 0 0
66 1 3.8342867396679514 3.689544014777281 8.349932466359151 0 0 0
69 1 5.112382260332117 1.4758177507406864 8.349932445406987 0 0 0
70 1 6.390477739667952 3.689544014777281 8.34993246635915 0 0 0
73 1 7.668573260332118 1.4758177507406864 8.349932445406987 0 0 0
85 1 3.8342867401626033 0.7379090194543372 10.437040493409143 0 0 0
86 1 5.112382259837334 2.95163530089279 10.437040508198292 0 0 0
89 1 6.390477740162604 0.7379090194543372 10.437040493409143 0 0 0
90 1 7.668573259837334 2.95163530089279 10.437040508198292 0 0 0
98 1 3.834286740162822 3.6895439693360794 12.521292993585583 0 0 0
101 1 5.112382259837169 1.4758176923724127 12.521293010916523 0 0 0
102 1 6.390477740162822 3.6895439693360794 12.521292993585583 0 0 0
105 1 7.668573259837169 1.4758176923724124 12.521293010916523 0 0 0
74 1 8.946668739667953 3.689544014777281 8.349932466359151 0 0 0
77 1 10.224764260332117 1.4758177507406864 8.349932445406987 0 0 0
93 1 8.946668740162604 0.7379090194543373 10.437040493409143 0 0 0
94 1 10.224764259837334 2.95163530089279 10.437040508198292 0 0 0
106 1 8.946668740162822 3.6895439693360794 12.521292993585583 0 0 0
109 1 10.22476425983717 1.475817692372413 12.521293010916525 0 0 0
78 1 11.502859739667954 3.689544014777281 8.349932466359151 0 0 0
110 1 11.50285974016282 3.6895439693360794 12.521292993585583 0 0 0
67 1 5.112382260331774 5.903270218893543 8.349932420208795 0 0 0
68 1 6.390477739668183 8.116996459225764 8.349932442578138 0 0 0
71 1 7.668573260331774 5.903270218893544 8.349932420208795 0 0 0
83 1 3.8342867401627796 5.165361564665167 10.43704047984753 0 0 0
84 1 5.112382259837121 7.379087809651274 10.43704047481995 0 0 0
87 1 6.39047774016278 5.165361564665167 10.43704047984753 0 0 0
88 1 7.668573259837121 7.379087809651274 10.437040474819952 0 0 0
99 1 5.112382259836959 5.90327017484124 12.521293019293473 0 0 0
100 1 6.390477740162986 8.11699641630356 12.521293018318252 0 0 0
103 1 7.668573259836959 5.903270174841239 12.521293019293473 0 0 0
72 1 8.946668739668183 8.116996459225764 8.349932442578138 0 0 0
75 1 10.224764260331774 5.903270218893544 8.349932420208795 0 0 0
91 1 8.94666874016278 5.165361564665166 10.43704047984753 0 0 0
92 1 10.224764259837121 7.379087809651274 10.437040474819952 0 0 0
104 1 8.946668740162986 8.11699641630356 12.521293018318252 0 0 0
107 1 10.224764259836961 5.90327017484124 12.521293019293473 0 0 0
76 1 11.502859739668185 8.116996459225764 8.349932442578138 0 0 0
79 1 12.780955260331774 5.903270218893543 8.349932420208797 0 0 0
80 1 14.059050739668184 8.116996459225764 8.349932442578138 0 0 0
95 1 11.50285974016278 5.165361564665166 10.43704047984753 0 0 0
96 1 12.780955259837121 7.379087809651274 10.437040474819952 0 0 0
108 1 11.502859740162986 8.11699641630356 12.521293018318254 0 0 0
111 1 12.780955259836961 5.90327017484124 12.521293019293473 0 0 0
112 1 14.059050740162988 8.11699641630356 12.521293018318252 0 0 0
113 1 1.2780957396681845 0.7379089357649267 14.608401054384643 0 0 0
114 1 2.5561912603318877 2.9516351798388483 14.608401035693237 0 0 0
117 1 3.834286739668184 0.7379089357649272 14.608401054384643 0 0 0
118 1 5.112382260331889 2.9516351798388483 14.608401035693237 0 0 0
121 1 6.390477739668184 0.737908935764927 14.608401054384643 0 0 0
122 1 7.668573260331889 2.9516351798388483 14.608401035693237 0 0 0
125 1 8.946668739668187 0.7379089357649269 14.608401054384643 0 0 0
126 1 10.224764260331888 2.9516351798388487 14.608401035693237 0 0 0
115 1 3.834286739668313 5.165361461727974 14.608401050674106 0 0 0
116 1 5.112382260331626 7.379087701953292 14.608401082691888 0 0 0
119 1 6.390477739668313 5.165361461727974 14.608401050674106 0 0 0
120 1 7.668573260331626 7.379087701953292 14.608401082691888 0 0 0
123 1 8.946668739668311 5.165361461727974 14.608401050674106 0 0 0
124 1 10.224764260331625 7.379087701953292 14.608401082691888 0 0 0
127 1 11.502859739668313 5.165361461727974 14.608401050674106 0 0 0
128 1 12.780955260331627 7.379087701953292 14.608401082691888 0 0 0

Velocities

1 0 0 0
2 0 0 0
5 0 0 0
17 0 0 0
18 0 0 0
33 0 0 0
6 0 0 0
9 0 0 0
10 0 0 0
13 0 0 0
21 0 0 0
22 0 0 0
25 0 0 0
26 0 0 0
34 0 0 0
37 0 0 0
38 0 0 0
41 0 0 0
14 0 0 0
29 0 0 0
30 0 0 0
42 0 0 0
45 0 0 0
46 0 0 0
4 0 0 0
7 0 0 0
8 0 0 0
11 0 0 0
19 0 0 0
20 0 0 0
23 0 0 0
24 0 0 0
35 0 0 0
36 0 0 0
39 0 0 0
12 0 0 0
15 0 0 0
27 0 0 0
28 0 0 0
40 0 0 0
43 0 0 0
3 0 0 0
16 0 0 0
31 0 0 0
32 0 0 0
44 0 0 0
47 0 0 0
48 0 0 0
49 0 0 0
50 0 0 0
53 0 0 0
54 0 0 0
57 0 0 0
58 0 0 0
61 0 0 0
62 0 0 0
52 0 0 0
55 0 0 0
56 0 0 0
59 0 0 0
60 0 0 0
63 0 0 0
51 0 0 0
64 0 0 0
65 0 0 0
81 0 0 0
82 0 0 0
97 0 0 0
66 0 0 0
69 0 0 0
70 0 0 0
73 0 0 0
85 0 0 0
86 0 0 0
89 0 0 0
90 0 0 0
98 0 0 0
101 0 0 0
102 0 0 0
105 0 0 0
74 0 0 0
77 0 0 0
93 0 0 0
94 0 0 0
106 0 0 0
109 0 0 0
78 0 0 0
110 0 0 0
67 0 0 0
68 0 0 0
71 0 0 0
83 0 0 0
84 0 0 0
87 0 0 0
88 0 0 0
99 0 0 0
100 0 0 0
103 0 0 0
72 0 0 0
75 0 0 0
91 0 0 0
92 0 0 0
104 0 0 0
107 0 0 0
76 0 0 0
79 0 0 0
80 0 0 0
95 0 0 0
96 0 0 0
108 0 0 0
111 0 0 0
112 0 0 0
113 0 0 0
114 0 0 0
117 0 0 0
118 0 0 0
121 0 0 0
122 0 0 0
125 0 0 0
126 0 0 0
115 0 0 0
116 0 0 0
119 0 0 0
120 0 0 0
123 0 0 0
124 0 0 0
127 0 0 0
128 0 0 0
