LAMMPS data file via write_data, version 22 Jul 2025, timestep = 4, units = metal

128 atoms
3 atom types

0 10.224764 xlo xhi
0 8.854905 ylo yhi
0 16.69697 zlo zhi
5.112382 0 0 xy xz yz

Masses

1 63.55
2 63.55
3 63.55

Atoms # atomic

1 1 2.6091388029160715e-07 2.0990709192681293e-07 16.696258231439327 0 0 -1
2 1 1.2780957390863668 2.213726468379505 16.69625824319097 0 0 -1
5 1 2.55619126091388 2.0990709152204836e-07 16.696258231439327 0 0 -1
17 1 2.556191260913883 1.4758177191305795 2.087832766955885 0 0 0
33 1 1.2780957387886789 0.737908947191071 4.176378401170324 0 0 0
34 1 2.5561912612113944 2.951635195379266 4.176378405771177 0 0 0
6 1 3.8342867390863673 2.213726468379504 16.69625824319097 0 0 -1
9 1 5.112382260913879 2.099070909214018e-07 16.696258231439327 0 0 -1
10 1 6.390477739086368 2.2137264683795044 16.69625824319097 0 0 -1
13 1 7.66857326091388 2.0990709216655367e-07 16.696258231439327 0 0 -1
18 1 3.8342867390861555 3.6895439854316443 2.087832798775297 0 0 0
21 1 5.112382260913884 1.4758177191305792 2.087832766955885 0 0 0
22 1 6.390477739086156 3.6895439854316443 2.087832798775297 0 0 0
25 1 7.668573260913883 1.4758177191305795 2.087832766955886 0 0 0
37 1 3.8342867387886783 0.7379089471910709 4.176378401170324 0 0 0
38 1 5.112382261211396 2.951635195379266 4.176378405771177 0 0 0
41 1 6.390477738788679 0.7379089471910707 4.176378401170324 0 0 0
42 1 7.668573261211395 2.9516351953792666 4.176378405771176 0 0 0
14 1 8.946668739086366 2.2137264683795044 16.69625824319097 0 0 -1
26 1 8.946668739086157 3.6895439854316443 2.0878327987752967 0 0 0
29 1 10.224764260913883 1.475817719130579 2.087832766955885 0 0 0
45 1 8.946668738788679 0.737908947191071 4.176378401170324 0 0 0
46 1 10.224764261211394 2.951635195379266 4.176378405771176 0 0 0
30 1 11.502859739086157 3.6895439854316443 2.0878327987752967 0 0 0
4 1 3.8342867390860857 6.641178942134129 16.69625822858534 0 0 -1
7 1 5.112382260913736 4.427452705607642 16.69625824047674 0 0 -1
8 1 6.390477739086085 6.641178942134128 16.69625822858534 0 0 -1
11 1 7.668573260913735 4.427452705607642 16.69625824047674 0 0 -1
19 1 5.1123822609137 5.903270210024343 2.087832747088997 0 0 0
20 1 6.390477739086261 8.11699643321185 2.0878327434874144 0 0 0
23 1 7.6685732609137 5.903270210024343 2.087832747088997 0 0 0
35 1 3.8342867387886077 5.165361465822727 4.176378411272953 0 0 0
36 1 5.112382261211239 7.379087719144357 4.176378415392552 0 0 0
39 1 6.390477738788608 5.165361465822727 4.176378411272954 0 0 0
40 1 7.668573261211239 7.379087719144358 4.176378415392552 0 0 0
12 1 8.946668739086086 6.641178942134128 16.69625822858534 0 0 -1
15 1 10.224764260913735 4.427452705607642 16.69625824047674 0 0 -1
24 1 8.94666873908626 8.11699643321185 2.0878327434874144 0 0 0
27 1 10.224764260913698 5.903270210024343 2.0878327470889966 0 0 0
43 1 8.946668738788608 5.165361465822728 4.176378411272953 0 0 0
44 1 10.224764261211238 7.379087719144357 4.176378415392552 0 0 0
3 1 2.5561912609137356 4.427452705607643 16.69625824047674 0 0 -1
16 1 11.502859739086086 6.641178942134128 16.69625822858534 0 0 -1
28 1 11.502859739086261 8.116996433211852 2.0878327434874144 0 0 0
31 1 12.7809552609137 5.903270210024343 2.087832747088997 0 0 0
32 1 14.059050739086262 8.11699643321185 2.0878327434874144 0 0 0
47 1 11.502859738788608 5.165361465822727 4.176378411272953 0 0 0
48 1 12.78095526121124 7.379087719144357 4.176378415392552 0 0 0
49 1 2.6141770488752224e-07 1.9646911076520217e-07 6.264968114221767 0 0 0
50 1 1.2780957385825635 2.2137264772601504 6.264968103557474 0 0 0
53 1 2.556191261417705 1.9646911136191787e-07 6.264968114221766 0 0 0
54 1 3.8342867385825636 2.21372647726015 6.264968103557474 0 0 0
57 1 5.1123822614177055 1.96469111297349e-07 6.264968114221767 0 0 0
58 1 6.390477738582565 2.21372647726015 6.264968103557475 0 0 0
61 1 7.668573261417706 1.964691109075339e-07 6.264968114221766 0 0 0
62 1 8.946668738582565 2.21372647726015 6.264968103557474 0 0 0
52 1 3.834286738582229 6.64117895338976 6.26496812085464 0 0 0
55 1 5.112382261417558 4.427452723388247 6.264968112543472 0 0 0
56 1 6.39047773858223 6.64117895338976 6.26496812085464 0 0 0
59 1 7.668573261417557 4.427452723388247 6.264968112543472 0 0 0
60 1 8.94666873858223 6.641178953389761 6.26496812085464 0 0 0
63 1 10.224764261417558 4.427452723388248 6.264968112543472 0 0 0
51 1 2.5561912614175575 4.427452723388247 6.264968112543472 0 0 0
64 1 11.50285973858223 6.641178953389761 6.264968120854641 0 0 0
65 1 2.556191260883496 1.475817763326447 8.35065480713569 0 0 0
81 1 2.6088348780643406e-07 2.2097427197108106e-07 10.43343618363811 0 0 0
82 1 1.2780957391168264 2.2137264954127436 10.433436207614323 0 0 0
85 1 2.5561912608834882 2.2097427228562754e-07 10.43343618363811 0 0 0
97 1 2.5561912614176947 1.475817734469029 12.519122882378312 0 0 0
66 1 3.834286739116535 3.6895440314704544 8.350654815721285 0 0 0
69 1 5.112382260883496 1.475817763326447 8.35065480713569 0 0 0
70 1 6.390477739116536 3.689544031470455 8.350654815721285 0 0 0
73 1 7.6685732608834964 1.475817763326447 8.35065480713569 0 0 0
86 1 3.8342867391168265 2.2137264954127436 10.433436207614323 0 0 0
89 1 5.112382260883487 2.2097427212697517e-07 10.433436183638108 0 0 0
90 1 6.390477739116827 2.2137264954127436 10.433436207614323 0 0 0
93 1 7.668573260883487 2.209742723110826e-07 10.433436183638108 0 0 0
98 1 3.834286738582281 3.689543995470933 12.519122902676914 0 0 0
101 1 5.112382261417694 1.4758177344690284 12.519122882378312 0 0 0
102 1 6.39047773858228 3.689543995470933 12.519122902676914 0 0 0
105 1 7.668573261417695 1.4758177344690289 12.519122882378312 0 0 0
74 1 8.946668739116536 3.6895440314704544 8.350654815721285 0 0 0
77 1 10.224764260883497 1.4758177633264469 8.35065480713569 0 0 0
94 1 8.946668739116827 2.213726495412743 10.433436207614323 0 0 0
106 1 8.946668738582282 3.689543995470933 12.519122902676914 0 0 0
109 1 10.224764261417695 1.4758177344690289 12.519122882378314 0 0 0
78 1 11.502859739116536 3.689544031470455 8.350654815721285 0 0 0
110 1 11.502859738582284 3.689543995470933 12.519122902676914 0 0 0
67 1 5.112382260883179 5.903270251685376 8.350654810255007 0 0 0
68 1 6.390477739116831 8.116996487123432 8.350654791691397 0 0 0
71 1 7.66857326088318 5.903270251685376 8.350654810255008 0 0 0
84 1 3.834286739116518 6.6411789562611405 10.433436175558178 0 0 0
87 1 5.112382260883189 4.427452741708752 10.433436208385567 0 0 0
88 1 6.390477739116518 6.64117895626114 10.433436175558178 0 0 0
91 1 7.668573260883192 4.427452741708751 10.433436208385567 0 0 0
99 1 5.112382261417531 5.903270208870907 12.519122876766644 0 0 0
100 1 6.390477738582453 8.116996434725689 12.519122887000918 0 0 0
103 1 7.66857326141753 5.903270208870907 12.519122876766644 0 0 0
72 1 8.94666873911683 8.116996487123432 8.350654791691397 0 0 0
75 1 10.22476426088318 5.903270251685376 8.350654810255008 0 0 0
92 1 8.946668739116516 6.64117895626114 10.433436175558178 0 0 0
95 1 10.224764260883191 4.427452741708752 10.433436208385567 0 0 0
104 1 8.946668738582453 8.116996434725687 12.519122887000917 0 0 0
107 1 10.224764261417533 5.903270208870907 12.519122876766644 0 0 0
76 1 11.502859739116834 8.116996487123432 8.350654791691397 0 0 0
79 1 12.780955260883179 5.903270251685376 8.350654810255008 0 0 0
80 1 14.059050739116831 8.116996487123432 8.350654791691397 0 0 0
83 1 2.5561912608831916 4.427452741708752 10.433436208385567 0 0 0
96 1 11.502859739116516 6.64117895626114 10.433436175558178 0 0 0
108 1 11.502859738582455 8.116996434725687 12.519122887000918 0 0 0
111 1 12.780955261417532 5.903270208870907 12.519122876766644 0 0 0
112 1 14.059050738582453 8.116996434725689 12.519122887000918 0 0 0
113 1 1.278095738788679 0.7379089456347272 14.607712586376481 0 0 0
114 1 2.556191261211387 2.9516352033261266 14.607712571061061 0 0 0
117 1 3.834286738788679 0.7379089456347268 14.607712586376481 0 0 0
118 1 5.112382261211387 2.951635203326126 14.607712571061061 0 0 0
121 1 6.390477738788679 0.737908945634727 14.607712586376481 0 0 0
122 1 7.668573261211387 2.951635203326126 14.607712571061061 0 0 0
125 1 8.946668738788677 0.7379089456347269 14.607712586376481 0 0 0
126 1 10.224764261211385 2.9516352033261266 14.607712571061061 0 0 0
115 1 3.834286738788612 5.165361462967391 14.607712598377764 0 0 0
116 1 5.1123822612112475 7.379087714701096 14.607712610578014 0 0 0
119 1 6.390477738788611 5.165361462967391 14.607712598377764 0 0 0
120 1 7.668573261211247 7.379087714701096 14.607712610578014 0 0 0
123 1 8.946668738788611 5.165361462967391 14.607712598377764 0 0 0
124 1 10.224764261211245 7.379087714701096 14.607712610578014 0 0 0
127 1 11.502859738788612 5.1653614629673905 14.607712598377764 0 0 0
128 1 12.780955261211245 7.379087714701096 14.607712610578014 0 0 0

Velocities

1 0 0 0
2 0 0 0
5 0 0 0
17 0 0 0
33 0 0 0
34 0 0 0
6 0 0 0
9 0 0 0
10 0 0 0
13 0 0 0
18 0 0 0
21 0 0 0
22 0 0 0
25 0 0 0
37 0 0 0
38 0 0 0
41 0 0 0
42 0 0 0
14 0 0 0
26 0 0 0
29 0 0 0
45 0 0 0
46 0 0 0
30 0 0 0
4 0 0 0
7 0 0 0
8 0 0 0
11 0 0 0
19 0 0 0
20 0 0 0
23 0 0 0
35 0 0 0
36 0 0 0
39 0 0 0
40 0 0 0
12 0 0 0
15 0 0 0
24 0 0 0
27 0 0 0
43 0 0 0
44 0 0 0
3 0 0 0
16 0 0 0
28 0 0 0
31 0 0 0
32 0 0 0
47 0 0 0
48 0 0 0
49 0 0 0
50 0 0 0
53 0 0 0
54 0 0 0
57 0 0 0
58 0 0 0
61 0 0 0
62 0 0 0
52 0 0 0
55 0 0 0
56 0 0 0
59 0 0 0
60 0 0 0
63 0 0 0
51 0 0 0
64 0 0 0
65 0 0 0
81 0 0 0
82 0 0 0
85 0 0 0
97 0 0 0
66 0 0 0
69 0 0 0
70 0 0 0
73 0 0 0
86 0 0 0
89 0 0 0
90 0 0 0
93 0 0 0
98 0 0 0
101 0 0 0
102 0 0 0
105 0 0 0
74 0 0 0
77 0 0 0
94 0 0 0
106 0 0 0
109 0 0 0
78 0 0 0
110 0 0 0
67 0 0 0
68 0 0 0
71 0 0 0
84 0 0 0
87 0 0 0
88 0 0 0
91 0 0 0
99 0 0 0
100 0 0 0
103 0 0 0
72 0 0 0
75 0 0 0
92 0 0 0
95 0 0 0
104 0 0 0
107 0 0 0
76 0 0 0
79 0 0 0
80 0 0 0
83 0 0 0
96 0 0 0
108 0 0 0
111 0 0 0
112 0 0 0
113 0 0 0
114 0 0 0
117 0 0 0
118 0 0 0
121 0 0 0
122 0 0 0
125 0 0 0
126 0 0 0
115 0 0 0
116 0 0 0
119 0 0 0
120 0 0 0
123 0 0 0
124 0 0 0
127 0 0 0
128 0 0 0
