LAMMPS data file via write_data, version 22 Jul 2025, timestep = 5, units = metal

128 atoms
3 atom types

0 10.224764 xlo xhi
0 8.854905 ylo yhi
0 16.69697 zlo zhi
5.112382 0 0 xy xz yz

Masses

1 63.55
2 63.55
3 63.55

Atoms # atomic

1 1 2.556191248846911 1.475817708140481 16.694087523782606 0 0 -1
17 1 1.2780957511507096 0.73790896354711 2.0870895702803134 0 0 0
18 1 2.5561912488493066 2.951635194157543 2.0870895759949826 0 0 0
33 1 2.4863340913537376e-07 2.2175267899916945e-07 4.174242414213612 0 0 0
34 1 1.2780957513666278 2.2137264545428814 4.174242414213473 0 0 0
37 1 2.5561912486334095 2.2175267857306346e-07 4.174242414213613 0 0 0
2 1 3.8342867511530807 3.6895439654663957 16.694087512975138 0 0 -1
5 1 5.11238224884691 1.475817708140481 16.694087523782606 0 0 -1
6 1 6.390477751153081 3.6895439654663957 16.694087512975138 0 0 -1
9 1 7.66857324884691 1.4758177081404817 16.694087523782606 0 0 -1
21 1 3.8342867511507097 0.73790896354711 2.0870895702803134 0 0 0
22 1 5.112382248849307 2.951635194157543 2.0870895759949826 0 0 0
25 1 6.39047775115071 0.73790896354711 2.0870895702803134 0 0 0
26 1 7.668573248849306 2.9516351941575425 2.087089575994982 0 0 0
38 1 3.834286751366628 2.2137264545428814 4.174242414213473 0 0 0
41 1 5.112382248633408 2.217526787005509e-07 4.174242414213613 0 0 0
42 1 6.390477751366627 2.2137264545428814 4.174242414213473 0 0 0
45 1 7.66857324863341 2.2175267860593583e-07 4.174242414213613 0 0 0
10 1 8.946668751153082 3.6895439654663953 16.694087512975138 0 0 -1
13 1 10.224764248846911 1.4758177081404806 16.694087523782606 0 0 -1
29 1 8.94666875115071 0.7379089635471098 2.0870895702803134 0 0 0
30 1 10.224764248849308 2.951635194157542 2.087089575994983 0 0 0
46 1 8.946668751366627 2.2137264545428814 4.174242414213473 0 0 0
14 1 11.502859751153082 3.6895439654663953 16.694087512975138 0 0 -1
3 1 5.112382248846868 5.90327023131606 16.69408752779006 0 0 -1
4 1 6.390477751153121 8.116996459975038 16.694087514062048 0 0 -1
7 1 7.668573248846867 5.903270231316059 16.69408752779006 0 0 -1
19 1 3.834286751150687 5.1653614638111005 2.0870895762476356 0 0 0
20 1 5.1123822488492845 7.3790876851323075 2.087089571443942 0 0 0
23 1 6.390477751150687 5.1653614638111005 2.0870895762476356 0 0 0
24 1 7.668573248849285 7.379087685132307 2.0870895714439426 0 0 0
36 1 3.834286751366566 6.641178945967545 4.17424241421347 0 0 0
39 1 5.112382248633407 4.427452704471669 4.17424241421369 0 0 0
40 1 6.390477751366566 6.641178945967545 4.17424241421347 0 0 0
43 1 7.668573248633407 4.427452704471669 4.17424241421369 0 0 0
8 1 8.946668751153119 8.116996459975038 16.694087514062048 0 0 -1
11 1 10.224764248846867 5.90327023131606 16.694087527790057 0 0 -1
27 1 8.946668751150687 5.1653614638111005 2.0870895762476356 0 0 0
28 1 10.224764248849283 7.379087685132307 2.087089571443942 0 0 0
44 1 8.946668751366566 6.641178945967545 4.17424241421347 0 0 0
47 1 10.224764248633406 4.427452704471669 4.17424241421369 0 0 0
12 1 11.502859751153121 8.116996459975038 16.694087514062048 0 0 -1
15 1 12.780955248846869 5.90327023131606 16.69408752779006 0 0 -1
16 1 14.05905075115312 8.116996459975038 16.694087514062048 0 0 -1
31 1 11.502859751150687 5.1653614638111005 2.0870895762476356 0 0 0
32 1 12.780955248849285 7.3790876851323075 2.0870895714439426 0 0 0
35 1 2.5561912486334064 4.427452704471669 4.17424241421369 0 0 0
48 1 11.502859751366564 6.641178945967544 4.17424241421347 0 0 0
49 1 1.2780957511506963 0.7379089635471782 6.2613951003189765 0 0 0
50 1 2.556191248849321 2.9516351941574595 6.261395094604296 0 0 0
53 1 3.8342867511506955 0.7379089635471785 6.2613951003189765 0 0 0
54 1 5.11238224884932 2.951635194157459 6.261395094604296 0 0 0
57 1 6.390477751150697 0.737908963547178 6.2613951003189765 0 0 0
58 1 7.668573248849319 2.951635194157459 6.261395094604295 0 0 0
61 1 8.946668751150696 0.7379089635471782 6.2613951003189765 0 0 0
62 1 10.22476424884932 2.9516351941574586 6.261395094604296 0 0 0
51 1 3.8342867511506737 5.165361463811128 6.261395094351724 0 0 0
52 1 5.112382248849299 7.379087685132291 6.261395099155268 0 0 0
55 1 6.390477751150674 5.165361463811128 6.261395094351723 0 0 0
56 1 7.668573248849299 7.3790876851322915 6.261395099155268 0 0 0
59 1 8.946668751150675 5.165361463811128 6.261395094351724 0 0 0
60 1 10.2247642488493 7.379087685132291 6.261395099155268 0 0 0
63 1 11.502859751150675 5.165361463811128 6.261395094351724 0 0 0
64 1 12.7809552488493 7.379087685132291 6.261395099155268 0 0 0
65 1 2.556191248846911 1.4758177081405832 8.351367307007436 0 0 0
81 1 2.487003395877148e-07 2.0856482442351884e-07 10.438495204810366 0 0 0
82 1 1.2780957512997697 2.2137264857796475 10.438495216661842 0 0 0
85 1 2.55619124870034 2.0856482424431507e-07 10.438495204810366 0 0 0
97 1 2.5561912487720204 1.4758177861878228 12.522727418733124 0 0 0
66 1 3.8342867511530816 3.6895439654663407 8.351367317814777 0 0 0
69 1 5.11238224884691 1.4758177081405826 8.351367307007434 0 0 0
70 1 6.390477751153082 3.6895439654663407 8.351367317814777 0 0 0
73 1 7.668573248846911 1.4758177081405832 8.351367307007434 0 0 0
86 1 3.8342867512997705 2.2137264857796475 10.438495216661842 0 0 0
89 1 5.11238224870034 2.0856482476725762e-07 10.438495204810367 0 0 0
90 1 6.390477751299771 2.2137264857796475 10.438495216661842 0 0 0
93 1 7.66857324870034 2.0856482452990337e-07 10.438495204810367 0 0 0
98 1 3.834286751227957 3.689544000687419 12.522727418732885 0 0 0
101 1 5.11238224877202 1.475817786187823 12.522727418733126 0 0 0
102 1 6.390477751227955 3.689544000687419 12.522727418732885 0 0 0
105 1 7.66857324877202 1.475817786187823 12.522727418733126 0 0 0
74 1 8.946668751153082 3.6895439654663407 8.351367317814777 0 0 0
77 1 10.224764248846911 1.475817708140583 8.351367307007436 0 0 0
94 1 8.94666875129977 2.2137264857796475 10.438495216661842 0 0 0
106 1 8.946668751227955 3.689544000687419 12.522727418732885 0 0 0
109 1 10.22476424877202 1.4758177861878228 12.522727418733124 0 0 0
78 1 11.502859751153082 3.689543965466341 8.351367317814777 0 0 0
110 1 11.502859751227955 3.6895440006874187 12.522727418732885 0 0 0
67 1 5.112382248846868 5.903270231316074 8.351367303000028 0 0 0
68 1 6.390477751153122 8.11699645997504 8.351367316727869 0 0 0
71 1 7.668573248846867 5.903270231316075 8.351367303000025 0 0 0
84 1 3.834286751299651 6.641178982807733 10.438495218018918 0 0 0
87 1 5.1123822487002535 4.427452701026159 10.438495208549405 0 0 0
88 1 6.390477751299651 6.641178982807734 10.438495218018918 0 0 0
91 1 7.668573248700254 4.4274527010261595 10.438495208549405 0 0 0
99 1 5.112382248771926 5.903270279162904 12.522727418733098 0 0 0
100 1 6.390477751228113 8.116996507778385 12.522727418732797 0 0 0
103 1 7.668573248771926 5.903270279162906 12.522727418733098 0 0 0
72 1 8.94666875115312 8.11699645997504 8.351367316727869 0 0 0
75 1 10.224764248846867 5.903270231316075 8.351367303000025 0 0 0
92 1 8.946668751299653 6.641178982807733 10.438495218018918 0 0 0
95 1 10.224764248700252 4.427452701026159 10.438495208549405 0 0 0
104 1 8.946668751228112 8.116996507778385 12.522727418732797 0 0 0
107 1 10.224764248771926 5.903270279162904 12.5227274187331 0 0 0
76 1 11.502859751153121 8.11699645997504 8.351367316727869 0 0 0
79 1 12.780955248846869 5.903270231316075 8.351367303000028 0 0 0
80 1 14.05905075115312 8.11699645997504 8.351367316727869 0 0 0
83 1 2.5561912487002516 4.427452701026159 10.438495208549405 0 0 0
96 1 11.50285975129965 6.641178982807733 10.438495218018918 0 0 0
108 1 11.502859751228112 8.116996507778385 12.522727418732797 0 0 0
111 1 12.780955248771926 5.903270279162904 12.522727418733098 0 0 0
112 1 14.059050751228114 8.116996507778385 12.522727418732797 0 0 0
113 1 2.487003531013284e-07 2.0856468084419382e-07 14.606959460853663 0 0 0
114 1 1.2780957512997573 2.2137264857796284 14.606959449002519 0 0 0
117 1 2.5561912487003533 2.085646812210306e-07 14.606959460853663 0 0 0
118 1 3.834286751299757 2.2137264857796284 14.606959449002519 0 0 0
121 1 5.112382248700353 2.085646810272822e-07 14.606959460853663 0 0 0
122 1 6.390477751299758 2.2137264857796284 14.606959449002519 0 0 0
125 1 7.668573248700352 2.0856468147654997e-07 14.606959460853663 0 0 0
126 1 8.946668751299756 2.213726485779629 14.606959449002519 0 0 0
116 1 3.834286751299638 6.641178982807711 14.606959447645384 0 0 0
119 1 5.112382248700266 4.427452701026168 14.60695945711466 0 0 0
120 1 6.390477751299638 6.641178982807712 14.606959447645384 0 0 0
123 1 7.668573248700266 4.427452701026168 14.606959457114659 0 0 0
124 1 8.946668751299638 6.641178982807711 14.606959447645384 0 0 0
127 1 10.22476424870027 4.427452701026168 14.606959457114659 0 0 0
115 1 2.556191248700269 4.427452701026168 14.606959457114659 0 0 0
128 1 11.502859751299638 6.641178982807712 14.606959447645384 0 0 0

Velocities

1 0 0 0
17 0 0 0
18 0 0 0
33 0 0 0
34 0 0 0
37 0 0 0
2 0 0 0
5 0 0 0
6 0 0 0
9 0 0 0
21 0 0 0
22 0 0 0
25 0 0 0
26 0 0 0
38 0 0 0
41 0 0 0
42 0 0 0
45 0 0 0
10 0 0 0
13 0 0 0
29 0 0 0
30 0 0 0
46 0 0 0
14 0 0 0
3 0 0 0
4 0 0 0
7 0 0 0
19 0 0 0
20 0 0 0
23 0 0 0
24 0 0 0
36 0 0 0
39 0 0 0
40 0 0 0
43 0 0 0
8 0 0 0
11 0 0 0
27 0 0 0
28 0 0 0
44 0 0 0
47 0 0 0
12 0 0 0
15 0 0 0
16 0 0 0
31 0 0 0
32 0 0 0
35 0 0 0
48 0 0 0
49 0 0 0
50 0 0 0
53 0 0 0
54 0 0 0
57 0 0 0
58 0 0 0
61 0 0 0
62 0 0 0
51 0 0 0
52 0 0 0
55 0 0 0
56 0 0 0
59 0 0 0
60 0 0 0
63 0 0 0
64 0 0 0
65 0 0 0
81 0 0 0
82 0 0 0
85 0 0 0
97 0 0 0
66 0 0 0
69 0 0 0
70 0 0 0
73 0 0 0
86 0 0 0
89 0 0 0
90 0 0 0
93 0 0 0
98 0 0 0
101 0 0 0
102 0 0 0
105 0 0 0
74 0 0 0
77 0 0 0
94 0 0 0
106 0 0 0
109 0 0 0
78 0 0 0
110 0 0 0
67 0 0 0
68 0 0 0
71 0 0 0
84 0 0 0
87 0 0 0
88 0 0 0
91 0 0 0
99 0 0 0
100 0 0 0
103 0 0 0
72 0 0 0
75 0 0 0
92 0 0 0
95 0 0 0
104 0 0 0
107 0 0 0
76 0 0 0
79 0 0 0
80 0 0 0
83 0 0 0
96 0 0 0
108 0 0 0
111 0 0 0
112 0 0 0
113 0 0 0
114 0 0 0
117 0 0 0
118 0 0 0
121 0 0 0
122 0 0 0
125 0 0 0
126 0 0 0
116 0 0 0
119 0 0 0
120 0 0 0
123 0 0 0
124 0 0 0
127 0 0 0
115 0 0 0
128 0 0 0
