LAMMPS data file via write_data, version 22 Jul 2025, timestep = 2, units = metal

128 atoms
3 atom types

0 10.224764 xlo xhi
0 8.854905 ylo yhi
0 16.69697 zlo zhi
5.112382 0 0 xy xz yz

Masses

1 63.55
2 63.55
3 63.55

Atoms # atomic

1 1 2.4850288682919266e-07 1.8196282320934064e-07 0.0014274067633390823 0 0 0
2 1 1.278095751497298 2.2137263170843404 0.001427491595259738 0 0 0
5 1 2.5561912485028873 1.819628225847985e-07 0.0014274067633393427 0 0 0
17 1 1.2780957520508145 0.7379088083722669 2.0871212653317226 0 0 0
18 1 2.5561912479492217 2.951635159884212 2.087121265331911 0 0 0
33 1 2.485027909460423e-07 1.8196266879809028e-07 4.17281456488426 0 0 0
34 1 1.2780957514973943 2.213726317084436 4.172814480051991 0 0 0
37 1 2.55619124850279 1.8196266858444904e-07 4.17281456488426 0 0 0
6 1 3.834286751497298 2.2137263170843404 0.0014274915952594716 0 0 0
9 1 5.112382248502887 1.8196282284173072e-07 0.0014274067633394648 0 0 0
10 1 6.390477751497299 2.2137263170843404 0.0014274915952596588 0 0 0
13 1 7.668573248502886 1.819628225940809e-07 0.0014274067633392488 0 0 0
21 1 3.834286752050814 0.7379088083722662 2.0871212653317226 0 0 0
22 1 5.112382247949222 2.951635159884212 2.0871212653319104 0 0 0
25 1 6.390477752050814 0.7379088083722665 2.087121265331723 0 0 0
26 1 7.668573247949222 2.9516351598842117 2.0871212653319104 0 0 0
38 1 3.8342867514973946 2.2137263170844363 4.172814480051991 0 0 0
41 1 5.112382248502791 1.8196266880839058e-07 4.17281456488426 0 0 0
42 1 6.390477751497395 2.213726317084436 4.172814480051991 0 0 0
45 1 7.668573248502789 1.8196266934113422e-07 4.17281456488426 0 0 0
14 1 8.946668751497297 2.21372631708434 0.0014274915952594378 0 0 0
29 1 8.946668752050813 0.7379088083722668 2.0871212653317226 0 0 0
30 1 10.224764247949222 2.9516351598842125 2.0871212653319104 0 0 0
46 1 8.946668751497395 2.2137263170844363 4.17281448005199 0 0 0
4 1 3.834286751497076 6.6411788539669985 0.0014273891817663175 0 0 0
7 1 5.112382248502851 4.427452721874569 0.001427464315324053 0 0 0
8 1 6.390477751497075 6.6411788539669985 0.0014273891817661228 0 0 0
11 1 7.668573248502851 4.427452721874569 0.0014274643153239842 0 0 0
19 1 3.8342867520508626 5.165361294085899 2.0871212653315854 0 0 0
20 1 5.112382247948997 7.379087672442606 2.087121265331546 0 0 0
23 1 6.390477752050861 5.165361294085899 2.087121265331585 0 0 0
24 1 7.668573247948997 7.379087672442606 2.087121265331546 0 0 0
36 1 3.834286751497173 6.6411788539671255 4.172814582465658 0 0 0
39 1 5.112382248502755 4.4274527218745074 4.17281450733213 0 0 0
40 1 6.390477751497173 6.641178853967126 4.172814582465658 0 0 0
43 1 7.668573248502754 4.4274527218745074 4.17281450733213 0 0 0
12 1 8.946668751497077 6.6411788539669985 0.0014273891817661347 0 0 0
15 1 10.22476424850285 4.427452721874569 0.0014274643153241364 0 0 0
27 1 8.946668752050863 5.165361294085899 2.087121265331585 0 0 0
28 1 10.224764247948997 7.379087672442606 2.087121265331546 0 0 0
44 1 8.946668751497173 6.641178853967126 4.172814582465658 0 0 0
47 1 10.224764248502755 4.4274527218745074 4.17281450733213 0 0 0
3 1 2.5561912485028513 4.427452721874569 0.0014274643153238602 0 0 0
16 1 11.502859751497077 6.6411788539669985 0.001427389181766123 0 0 0
31 1 11.502859752050862 5.165361294085899 2.087121265331585 0 0 0
32 1 12.780955247948999 7.379087672442607 2.087121265331546 0 0 0
35 1 2.5561912485027536 4.4274527218745074 4.17281450733213 0 0 0
48 1 11.502859751497171 6.641178853967126 4.172814582465657 0 0 0
49 1 1.2780957521749636 0.7379088469368047 6.261363760811452 0 0 0
50 1 2.5561912478250512 2.9516352306587876 6.261363755425487 0 0 0
53 1 3.8342867521749633 0.7379088469368044 6.261363760811452 0 0 0
54 1 5.112382247825051 2.951635230658787 6.261363755425487 0 0 0
57 1 6.390477752174964 0.7379088469368043 6.261363760811452 0 0 0
58 1 7.6685732478250515 2.951635230658787 6.261363755425487 0 0 0
61 1 8.946668752174961 0.7379088469368044 6.261363760811452 0 0 0
62 1 10.224764247825053 2.9516352306587876 6.261363755425487 0 0 0
51 1 3.834286752175043 5.165361330745077 6.261363776107392 0 0 0
52 1 5.11238224782489 7.379087743513303 6.261363759739127 0 0 0
55 1 6.390477752175043 5.165361330745077 6.261363776107392 0 0 0
56 1 7.66857324782489 7.379087743513303 6.261363759739128 0 0 0
59 1 8.946668752175041 5.165361330745077 6.261363776107392 0 0 0
60 1 10.22476424782489 7.3790877435133035 6.261363759739128 0 0 0
63 1 11.502859752175041 5.165361330745077 6.261363776107392 0 0 0
64 1 12.780955247824892 7.3790877435133035 6.261363759739128 0 0 0
65 1 2.5561912485028793 1.4758177086734348 8.349912406177813 0 0 0
81 1 1.278095752050814 0.7379088854092022 10.435606265331726 0 0 0
82 1 2.5561912479491786 2.9516353027720683 10.435606265331868 0 0 0
97 1 2.556191248502782 1.4758177086737365 12.521299565469505 0 0 0
66 1 3.8342867514971166 3.689544099588485 8.349912389978208 0 0 0
69 1 5.11238224850288 1.4758177086734348 8.349912406177813 0 0 0
70 1 6.390477751497116 3.6895440995884847 8.349912389978208 0 0 0
73 1 7.668573248502879 1.4758177086734345 8.349912406177813 0 0 0
85 1 3.8342867520508133 0.7379088854092022 10.435606265331726 0 0 0
86 1 5.112382247949179 2.9516353027720683 10.435606265331868 0 0 0
89 1 6.390477752050814 0.7379088854092022 10.435606265331726 0 0 0
90 1 7.668573247949179 2.9516353027720683 10.435606265331868 0 0 0
98 1 3.8342867514972134 3.68954409958839 12.521299581669474 0 0 0
101 1 5.112382248502783 1.4758177086737367 12.521299565469505 0 0 0
102 1 6.390477751497213 3.68954409958839 12.521299581669474 0 0 0
105 1 7.668573248502783 1.4758177086737365 12.521299565469505 0 0 0
74 1 8.946668751497116 3.6895440995884847 8.349912389978208 0 0 0
77 1 10.22476424850288 1.4758177086734345 8.349912406177813 0 0 0
93 1 8.946668752050813 0.7379088854092023 10.435606265331726 0 0 0
94 1 10.224764247949178 2.951635302772068 10.435606265331868 0 0 0
106 1 8.946668751497214 3.68954409958839 12.521299581669474 0 0 0
109 1 10.224764248502781 1.475817708673736 12.521299565469505 0 0 0
78 1 11.502859751497116 3.6895440995884847 8.349912389978208 0 0 0
110 1 11.502859751497214 3.6895440995883897 12.521299581669474 0 0 0
67 1 5.112382248502772 5.903270167533799 8.349912464009526 0 0 0
68 1 6.390477751497223 8.116996644868543 8.34991249169012 0 0 0
71 1 7.668573248502772 5.903270167533799 8.349912464009526 0 0 0
83 1 3.834286752050927 5.165361366842656 10.435606265331396 0 0 0
84 1 5.11238224794908 7.379087815376987 10.435606265331774 0 0 0
87 1 6.390477752050927 5.165361366842656 10.435606265331396 0 0 0
88 1 7.66857324794908 7.379087815376987 10.435606265331774 0 0 0
99 1 5.112382248502676 5.903270167534026 12.521299507637663 0 0 0
100 1 6.390477751497318 8.116996644868456 12.521299479957419 0 0 0
103 1 7.6685732485026765 5.903270167534026 12.521299507637663 0 0 0
72 1 8.94666875149722 8.116996644868543 8.34991249169012 0 0 0
75 1 10.224764248502773 5.903270167533799 8.349912464009526 0 0 0
91 1 8.946668752050927 5.165361366842656 10.435606265331396 0 0 0
92 1 10.224764247949079 7.3790878153769865 10.435606265331774 0 0 0
104 1 8.946668751497318 8.116996644868456 12.521299479957419 0 0 0
107 1 10.224764248502677 5.903270167534026 12.521299507637663 0 0 0
76 1 11.502859751497223 8.116996644868543 8.34991249169012 0 0 0
79 1 12.780955248502773 5.903270167533799 8.349912464009526 0 0 0
80 1 14.059050751497221 8.116996644868543 8.34991249169012 0 0 0
95 1 11.502859752050927 5.165361366842656 10.435606265331396 0 0 0
96 1 12.780955247949079 7.379087815376987 10.435606265331774 0 0 0
108 1 11.502859751497317 8.116996644868456 12.521299479957419 0 0 0
111 1 12.780955248502675 5.903270167534025 12.521299507637663 0 0 0
112 1 14.059050751497317 8.116996644868456 12.521299479957419 0 0 0
113 1 1.2780957521749636 0.7379088469368156 14.609848765230348 0 0 0
114 1 2.556191247825052 2.951635230658706 14.609848770616548 0 0 0
117 1 3.8342867521749633 0.7379088469368158 14.609848765230348 0 0 0
118 1 5.112382247825051 2.951635230658706 14.609848770616548 0 0 0
121 1 6.390477752174963 0.7379088469368159 14.609848765230348 0 0 0
122 1 7.668573247825051 2.951635230658706 14.609848770616548 0 0 0
125 1 8.946668752174963 0.7379088469368162 14.609848765230348 0 0 0
126 1 10.224764247825055 2.951635230658706 14.609848770616548 0 0 0
115 1 3.834286752175043 5.165361330745041 14.609848749934084 0 0 0
116 1 5.112382247824889 7.379087743513219 14.609848766302576 0 0 0
119 1 6.390477752175043 5.165361330745041 14.609848749934084 0 0 0
120 1 7.668573247824889 7.379087743513219 14.609848766302576 0 0 0
123 1 8.946668752175043 5.165361330745041 14.609848749934084 0 0 0
124 1 10.22476424782489 7.379087743513219 14.609848766302576 0 0 0
127 1 11.502859752175041 5.165361330745041 14.609848749934084 0 0 0
128 1 12.780955247824888 7.379087743513219 14.609848766302576 0 0 0

Velocities

1 0 0 0
2 0 0 0
5 0 0 0
17 0 0 0
18 0 0 0
33 0 0 0
34 0 0 0
37 0 0 0
6 0 0 0
9 0 0 0
10 0 0 0
13 0 0 0
21 0 0 0
22 0 0 0
25 0 0 0
26 0 0 0
38 0 0 0
41 0 0 0
42 0 0 0
45 0 0 0
14 0 0 0
29 0 0 0
30 0 0 0
46 0 0 0
4 0 0 0
7 0 0 0
8 0 0 0
11 0 0 0
19 0 0 0
20 0 0 0
23 0 0 0
24 0 0 0
36 0 0 0
39 0 0 0
40 0 0 0
43 0 0 0
12 0 0 0
15 0 0 0
27 0 0 0
28 0 0 0
44 0 0 0
47 0 0 0
3 0 0 0
16 0 0 0
31 0 0 0
32 0 0 0
35 0 0 0
48 0 0 0
49 0 0 0
50 0 0 0
53 0 0 0
54 0 0 0
57 0 0 0
58 0 0 0
61 0 0 0
62 0 0 0
51 0 0 0
52 0 0 0
55 0 0 0
56 0 0 0
59 0 0 0
60 0 0 0
63 0 0 0
64 0 0 0
65 0 0 0
81 0 0 0
82 0 0 0
97 0 0 0
66 0 0 0
69 0 0 0
70 0 0 0
73 0 0 0
85 0 0 0
86 0 0 0
89 0 0 0
90 0 0 0
98 0 0 0
101 0 0 0
102 0 0 0
105 0 0 0
74 0 0 0
77 0 0 0
93 0 0 0
94 0 0 0
106 0 0 0
109 0 0 0
78 0 0 0
110 0 0 0
67 0 0 0
68 0 0 0
71 0 0 0
83 0 0 0
84 0 0 0
87 0 0 0
88 0 0 0
99 0 0 0
100 0 0 0
103 0 0 0
72 0 0 0
75 0 0 0
91 0 0 0
92 0 0 0
104 0 0 0
107 0 0 0
76 0 0 0
79 0 0 0
80 0 0 0
95 0 0 0
96 0 0 0
108 0 0 0
111 0 0 0
112 0 0 0
113 0 0 0
114 0 0 0
117 0 0 0
118 0 0 0
121 0 0 0
122 0 0 0
125 0 0 0
126 0 0 0
115 0 0 0
116 0 0 0
119 0 0 0
120 0 0 0
123 0 0 0
124 0 0 0
127 0 0 0
128 0 0 0
