LAMMPS data file via write_data, version 22 Jul 2025, timestep = 5, units = metal

128 atoms
3 atom types

0 10.224764 xlo xhi
0 8.854905 ylo yhi
0 16.69697 zlo zhi
5.112382 0 0 xy xz yz

Masses

1 63.55
2 63.55
3 63.55

Atoms # atomic

1 1 2.4877108898751135e-07 1.6671474659935323e-07 16.696969918640978 0 0 -1
2 1 1.2780957512289868 2.2137263952375457 16.696969918641066 0 0 -1
5 1 2.556191248771089 1.667147464794896e-07 16.696969918640978 0 0 -1
17 1 1.2780957513005844 0.7379088489981033 2.084231950281639 0 0 0
18 1 2.5561912486994935 2.9516351135457475 2.084231959383159 0 0 0
33 1 2.488460794019144e-07 1.750676421042143e-07 4.171360024778414 0 0 0
34 1 1.2780957511540074 2.2137264607844447 4.171360022121497 0 0 0
37 1 2.556191248846079 1.7506764198230883e-07 4.171360024778414 0 0 0
6 1 3.834286751228987 2.2137263952375457 16.696969918641066 0 0 -1
9 1 5.112382248771088 1.6671474606080336e-07 16.69696991864098 0 0 -1
10 1 6.390477751228987 2.2137263952375457 16.696969918641066 0 0 -1
13 1 7.6685732487710885 1.6671474667025121e-07 16.696969918640978 0 0 -1
21 1 3.8342867513005854 0.7379088489981033 2.084231950281639 0 0 0
22 1 5.112382248699493 2.9516351135457475 2.084231959383159 0 0 0
25 1 6.390477751300585 0.7379088489981032 2.084231950281639 0 0 0
26 1 7.668573248699493 2.9516351135457475 2.084231959383159 0 0 0
38 1 3.834286751154008 2.2137264607844447 4.171360022121497 0 0 0
41 1 5.112382248846079 1.7506764179754752e-07 4.171360024778415 0 0 0
42 1 6.390477751154007 2.2137264607844447 4.171360022121497 0 0 0
45 1 7.668573248846079 1.7506764190504624e-07 4.171360024778415 0 0 0
14 1 8.946668751228987 2.2137263952375457 16.696969918641066 0 0 -1
29 1 8.946668751300587 0.7379088489981035 2.084231950281639 0 0 0
30 1 10.224764248699492 2.9516351135457466 2.084231959383159 0 0 0
46 1 8.946668751154007 2.2137264607844447 4.171360022121496 0 0 0
4 1 3.8342867512288503 6.641178893387133 16.69696991864108 0 0 -1
7 1 5.112382248771061 4.427452663376688 16.696969918641013 0 0 -1
8 1 6.39047775122885 6.641178893387133 16.696969918641084 0 0 -1
11 1 7.668573248771059 4.427452663376688 16.696969918641013 0 0 -1
19 1 3.8342867513005627 5.165361359703777 2.0842319463084245 0 0 0
20 1 5.1123822486993555 7.379087604564998 2.0842319629002803 0 0 0
23 1 6.390477751300563 5.165361359703777 2.0842319463084245 0 0 0
24 1 7.6685732486993565 7.379087604564997 2.0842319629002803 0 0 0
36 1 3.834286751153891 6.6411789482745744 4.171360020495404 0 0 0
39 1 5.112382248846034 4.427452651554453 4.171360024140174 0 0 0
40 1 6.390477751153892 6.6411789482745744 4.1713600204954036 0 0 0
43 1 7.668573248846034 4.427452651554452 4.171360024140175 0 0 0
12 1 8.94666875122885 6.641178893387134 16.696969918641084 0 0 -1
15 1 10.224764248771061 4.427452663376688 16.696969918641013 0 0 -1
27 1 8.946668751300564 5.165361359703777 2.0842319463084245 0 0 0
28 1 10.224764248699355 7.379087604564997 2.0842319629002803 0 0 0
44 1 8.94666875115389 6.641178948274575 4.1713600204954036 0 0 0
47 1 10.224764248846034 4.427452651554453 4.171360024140174 0 0 0
3 1 2.5561912487710607 4.427452663376688 16.696969918641013 0 0 -1
16 1 11.50285975122885 6.641178893387133 16.696969918641084 0 0 -1
31 1 11.502859751300562 5.165361359703777 2.0842319463084245 0 0 0
32 1 12.780955248699353 7.379087604564997 2.0842319629002803 0 0 0
35 1 2.5561912488460337 4.427452651554452 4.171360024140175 0 0 0
48 1 11.502859751153892 6.641178948274575 4.1713600204954036 0 0 0
49 1 2.556191248848489 1.4758177340425807 6.261332087906326 0 0 0
50 1 3.8342867511515237 3.68954397440329 6.261332066173312 0 0 0
53 1 5.11238224884849 1.4758177340425807 6.261332087906325 0 0 0
54 1 6.390477751151524 3.6895439744032905 6.261332066173312 0 0 0
57 1 7.66857324884849 1.4758177340425809 6.261332087906325 0 0 0
58 1 8.946668751151524 3.68954397440329 6.261332066173312 0 0 0
61 1 10.224764248848489 1.4758177340425802 6.261332087906326 0 0 0
62 1 11.502859751151524 3.68954397440329 6.261332066173312 0 0 0
51 1 5.112382248848423 5.903270248568723 6.261332087231442 0 0 0
52 1 6.390477751151574 8.116996472302468 6.261332063684312 0 0 0
55 1 7.668573248848423 5.903270248568723 6.261332087231442 0 0 0
56 1 8.946668751151574 8.116996472302468 6.261332063684312 0 0 0
59 1 10.224764248848423 5.903270248568724 6.261332087231442 0 0 0
60 1 11.502859751151576 8.116996472302468 6.2613320636843115 0 0 0
63 1 12.780955248848423 5.903270248568723 6.261332087231442 0 0 0
64 1 14.059050751151574 8.116996472302468 6.2613320636843115 0 0 0
65 1 1.2780957513675024 0.7379090788411368 8.34848491412149 0 0 0
66 1 2.556191248632483 2.951635272455778 8.348484914121398 0 0 0
81 1 2.5561912488484753 1.475817734042621 10.435637581914495 0 0 0
97 1 2.4884607960422473e-07 1.7506756818876623e-07 12.525609807720144 0 0 0
98 1 1.278095751154007 2.213726460784513 12.525609810377157 0 0 0
101 1 2.5561912488460794 1.750675684058034e-07 12.525609807720144 0 0 0
69 1 3.834286751367502 0.737909078841137 8.34848491412149 0 0 0
70 1 5.112382248632484 2.951635272455778 8.348484914121396 0 0 0
73 1 6.390477751367502 0.737909078841137 8.34848491412149 0 0 0
74 1 7.668573248632484 2.951635272455778 8.348484914121398 0 0 0
82 1 3.834286751151538 3.6895439744032568 10.43563760364721 0 0 0
85 1 5.1123822488484745 1.475817734042621 10.435637581914495 0 0 0
86 1 6.390477751151538 3.689543974403257 10.43563760364721 0 0 0
89 1 7.668573248848475 1.4758177340426204 10.435637581914495 0 0 0
102 1 3.834286751154007 2.213726460784513 12.525609810377157 0 0 0
105 1 5.11238224884608 1.7506756847678432e-07 12.525609807720144 0 0 0
106 1 6.390477751154007 2.213726460784513 12.525609810377157 0 0 0
109 1 7.66857324884608 1.750675680189018e-07 12.525609807720144 0 0 0
77 1 8.9466687513675 0.7379090788411371 8.34848491412149 0 0 0
78 1 10.224764248632482 2.951635272455778 8.348484914121398 0 0 0
90 1 8.946668751151538 3.6895439744032568 10.43563760364721 0 0 0
93 1 10.224764248848475 1.475817734042621 10.435637581914495 0 0 0
110 1 8.946668751154007 2.2137264607845126 12.525609810377157 0 0 0
94 1 11.502859751151538 3.6895439744032568 10.43563760364721 0 0 0
67 1 3.83428675136743 5.165361582540244 8.348484914121409 0 0 0
68 1 5.112382248632555 7.379087763825137 8.348484914121359 0 0 0
71 1 6.390477751367429 5.165361582540244 8.348484914121409 0 0 0
72 1 7.668573248632555 7.379087763825137 8.348484914121359 0 0 0
83 1 5.112382248848409 5.903270248568728 10.435637582589207 0 0 0
84 1 6.390477751151588 8.116996472302347 10.435637606136178 0 0 0
87 1 7.668573248848409 5.903270248568727 10.435637582589205 0 0 0
100 1 3.834286751153891 6.641178948274623 12.525609812003111 0 0 0
103 1 5.112382248846033 4.427452651554418 12.525609808358443 0 0 0
104 1 6.390477751153892 6.641178948274622 12.525609812003111 0 0 0
107 1 7.668573248846033 4.427452651554418 12.525609808358443 0 0 0
75 1 8.946668751367431 5.165361582540244 8.348484914121409 0 0 0
76 1 10.224764248632553 7.379087763825137 8.348484914121359 0 0 0
88 1 8.946668751151588 8.116996472302347 10.435637606136178 0 0 0
91 1 10.22476424884841 5.903270248568727 10.435637582589205 0 0 0
108 1 8.946668751153892 6.641178948274622 12.525609812003111 0 0 0
111 1 10.224764248846034 4.427452651554419 12.525609808358443 0 0 0
79 1 11.50285975136743 5.165361582540244 8.348484914121409 0 0 0
80 1 12.780955248632555 7.379087763825137 8.348484914121359 0 0 0
92 1 11.502859751151588 8.116996472302347 10.435637606136178 0 0 0
95 1 12.78095524884841 5.903270248568728 10.435637582589205 0 0 0
96 1 14.059050751151588 8.116996472302347 10.435637606136178 0 0 0
99 1 2.5561912488460345 4.427452651554418 12.525609808358443 0 0 0
112 1 11.502859751153892 6.641178948274623 12.525609812003111 0 0 0
113 1 1.2780957513005717 0.7379088489980913 14.612737714636607 0 0 0
114 1 2.5561912486995055 2.951635113545788 14.612737705535302 0 0 0
117 1 3.8342867513005716 0.7379088489980913 14.612737714636607 0 0 0
118 1 5.112382248699507 2.951635113545788 14.612737705535302 0 0 0
121 1 6.390477751300572 0.7379088489980906 14.612737714636607 0 0 0
122 1 7.668573248699506 2.9516351135457874 14.612737705535302 0 0 0
125 1 8.94666875130057 0.7379088489980906 14.612737714636607 0 0 0
126 1 10.224764248699508 2.951635113545788 14.612737705535302 0 0 0
115 1 3.8342867513005494 5.165361359703797 14.612737718609859 0 0 0
116 1 5.112382248699368 7.379087604565029 14.612737702018109 0 0 0
119 1 6.390477751300549 5.165361359703797 14.612737718609859 0 0 0
120 1 7.668573248699369 7.379087604565029 14.612737702018109 0 0 0
123 1 8.94666875130055 5.165361359703797 14.612737718609859 0 0 0
124 1 10.224764248699367 7.379087604565029 14.612737702018109 0 0 0
127 1 11.50285975130055 5.165361359703797 14.612737718609859 0 0 0
128 1 12.780955248699371 7.379087604565029 14.612737702018109 0 0 0

Velocities

1 0 0 0
2 0 0 0
5 0 0 0
17 0 0 0
18 0 0 0
33 0 0 0
34 0 0 0
37 0 0 0
6 0 0 0
9 0 0 0
10 0 0 0
13 0 0 0
21 0 0 0
22 0 0 0
25 0 0 0
26 0 0 0
38 0 0 0
41 0 0 0
42 0 0 0
45 0 0 0
14 0 0 0
29 0 0 0
30 0 0 0
46 0 0 0
4 0 0 0
7 0 0 0
8 0 0 0
11 0 0 0
19 0 0 0
20 0 0 0
23 0 0 0
24 0 0 0
36 0 0 0
39 0 0 0
40 0 0 0
43 0 0 0
12 0 0 0
15 0 0 0
27 0 0 0
28 0 0 0
44 0 0 0
47 0 0 0
3 0 0 0
16 0 0 0
31 0 0 0
32 0 0 0
35 0 0 0
48 0 0 0
49 0 0 0
50 0 0 0
53 0 0 0
54 0 0 0
57 0 0 0
58 0 0 0
61 0 0 0
62 0 0 0
51 0 0 0
52 0 0 0
55 0 0 0
56 0 0 0
59 0 0 0
60 0 0 0
63 0 0 0
64 0 0 0
65 0 0 0
66 0 0 0
81 0 0 0
97 0 0 0
98 0 0 0
101 0 0 0
69 0 0 0
70 0 0 0
73 0 0 0
74 0 0 0
82 0 0 0
85 0 0 0
86 0 0 0
89 0 0 0
102 0 0 0
105 0 0 0
106 0 0 0
109 0 0 0
77 0 0 0
78 0 0 0
90 0 0 0
93 0 0 0
110 0 0 0
94 0 0 0
67 0 0 0
68 0 0 0
71 0 0 0
72 0 0 0
83 0 0 0
84 0 0 0
87 0 0 0
100 0 0 0
103 0 0 0
104 0 0 0
107 0 0 0
75 0 0 0
76 0 0 0
88 0 0 0
91 0 0 0
108 0 0 0
111 0 0 0
79 0 0 0
80 0 0 0
92 0 0 0
95 0 0 0
96 0 0 0
99 0 0 0
112 0 0 0
113 0 0 0
114 0 0 0
117 0 0 0
118 0 0 0
121 0 0 0
122 0 0 0
125 0 0 0
126 0 0 0
115 0 0 0
116 0 0 0
119 0 0 0
120 0 0 0
123 0 0 0
124 0 0 0
127 0 0 0
128 0 0 0
