LAMMPS data file via write_data, version 22 Jul 2025, timestep = 4, units = metal

128 atoms
3 atom types

0 10.224764 xlo xhi
0 8.854905 ylo yhi
0 16.69697 zlo zhi
5.112382 0 0 xy xz yz

Masses

1 63.55
2 63.55
3 63.55

Atoms # atomic

1 1 1.278095739116631 0.7379088649968363 0.002169813581404457 0 0 0
2 1 2.556191260883495 2.9516350985733184 0.0021697992623385867 0 0 0
17 1 2.608833965044962e-07 1.5387733383834e-07 2.0849511963389227 0 0 0
18 1 1.2780957391168293 2.213726423519079 2.084951200308401 0 0 0
21 1 2.5561912608833968 1.5387733367990592e-07 2.084951196338923 0 0 0
33 1 1.2780957385823508 0.7379089360809671 4.170637889571919 0 0 0
34 1 2.556191261417715 2.9516351892887522 4.170637888484692 0 0 0
5 1 3.834286739116631 0.7379088649968364 0.0021698135814043878 0 0 0
6 1 5.112382260883495 2.951635098573319 0.0021697992623384917 0 0 0
9 1 6.390477739116631 0.7379088649968364 0.002169813581404466 0 0 0
10 1 7.668573260883495 2.9516350985733184 0.0021697992623382844 0 0 0
22 1 3.8342867391168287 2.2137264235190783 2.084951200308401 0 0 0
25 1 5.112382260883398 1.5387733356886223e-07 2.0849511963389227 0 0 0
26 1 6.390477739116829 2.2137264235190783 2.0849512003084016 0 0 0
29 1 7.668573260883396 1.5387733371137113e-07 2.0849511963389227 0 0 0
37 1 3.834286738582351 0.7379089360809672 4.170637889571919 0 0 0
38 1 5.112382261417714 2.9516351892887522 4.170637888484692 0 0 0
41 1 6.390477738582351 0.7379089360809673 4.170637889571919 0 0 0
42 1 7.668573261417715 2.951635189288752 4.170637888484692 0 0 0
13 1 8.946668739116632 0.7379088649968361 0.0021698135814044103 0 0 0
14 1 10.224764260883495 2.9516350985733184 0.002169799262338456 0 0 0
30 1 8.946668739116829 2.2137264235190783 2.0849512003084016 0 0 0
45 1 8.946668738582352 0.7379089360809673 4.170637889571919 0 0 0
46 1 10.224764261417715 2.951635189288752 4.170637888484692 0 0 0
3 1 3.834286739116618 5.165361348571899 0.0021697943338521665 0 0 0
4 1 5.112382260883157 7.379087600550497 0.0021698176381255373 0 0 0
7 1 6.390477739116619 5.165361348571899 0.002169794333852182 0 0 0
8 1 7.668573260883155 7.379087600550497 0.0021698176381259415 0 0 0
20 1 3.834286739116495 6.641178929394287 2.084951182791026 0 0 0
23 1 5.112382260883377 4.42745268459111 2.0849511957457647 0 0 0
24 1 6.390477739116496 6.641178929394287 2.084951182791026 0 0 0
27 1 7.668573260883378 4.42745268459111 2.0849511957457647 0 0 0
35 1 3.8342867385823425 5.165361457180627 4.170637887051725 0 0 0
36 1 5.112382261417546 7.379087716436176 4.170637883722925 0 0 0
39 1 6.390477738582342 5.165361457180627 4.170637887051725 0 0 0
40 1 7.668573261417546 7.379087716436176 4.170637883722926 0 0 0
11 1 8.946668739116618 5.165361348571899 0.002169794333852529 0 0 0
12 1 10.224764260883155 7.379087600550497 0.0021698176381256674 0 0 0
28 1 8.946668739116495 6.641178929394285 2.084951182791026 0 0 0
31 1 10.224764260883378 4.427452684591109 2.0849511957457647 0 0 0
43 1 8.946668738582343 5.165361457180627 4.170637887051725 0 0 0
44 1 10.224764261417546 7.379087716436176 4.170637883722926 0 0 0
15 1 11.502859739116618 5.165361348571899 0.002169794333852309 0 0 0
16 1 12.780955260883156 7.379087600550497 0.0021698176381256297 0 0 0
19 1 2.5561912608833772 4.427452684591109 2.0849511957457647 0 0 0
32 1 11.502859739116495 6.641178929394287 2.084951182791026 0 0 0
47 1 11.502859738582341 5.165361457180627 4.170637887051725 0 0 0
48 1 12.780955261417546 7.379087716436176 4.170637883722925 0 0 0
49 1 2.5561912612114357 1.4758177166066007 6.259227586753398 0 0 0
50 1 3.834286738788601 3.689543984920978 6.259227558907826 0 0 0
53 1 5.112382261211436 1.4758177166066 6.259227586753398 0 0 0
54 1 6.3904777387886025 3.6895439849209786 6.259227558907826 0 0 0
57 1 7.668573261211436 1.4758177166066002 6.259227586753398 0 0 0
58 1 8.9466687387886 3.6895439849209786 6.259227558907824 0 0 0
61 1 10.224764261211435 1.4758177166066 6.259227586753397 0 0 0
62 1 11.502859738788603 3.6895439849209795 6.259227558907824 0 0 0
51 1 5.112382261211259 5.903270210803957 6.259227611760126 0 0 0
52 1 6.3904777387887055 8.116996435020656 6.25922760892548 0 0 0
55 1 7.668573261211257 5.903270210803957 6.259227611760126 0 0 0
56 1 8.946668738788706 8.116996435020658 6.25922760892548 0 0 0
59 1 10.22476426121126 5.903270210803957 6.259227611760125 0 0 0
60 1 11.502859738788707 8.116996435020656 6.25922760892548 0 0 0
63 1 12.78095526121126 5.903270210803957 6.259227611760125 0 0 0
64 1 14.059050738788706 8.116996435020658 6.25922760892548 0 0 0
65 1 2.609138939649101e-07 2.0968231130219526e-07 8.347773239748193 0 0 0
66 1 1.2780957390863534 2.2137264675109156 8.347773229341737 0 0 0
69 1 2.5561912609138937 2.0968231143131733e-07 8.347773239748193 0 0 0
81 1 1.2780957390862127 0.7379089471198771 10.436317775178347 0 0 0
82 1 2.556191260913861 2.9516351996589236 10.43631778193824 0 0 0
97 1 2.5561912612114477 1.4758177261091439 12.524863417074203 0 0 0
70 1 3.834286739086353 2.2137264675109156 8.347773229341737 0 0 0
73 1 5.112382260913893 2.0968231133580677e-07 8.347773239748193 0 0 0
74 1 6.390477739086352 2.213726467510916 8.347773229341737 0 0 0
77 1 7.6685732609138935 2.0968231169781216e-07 8.347773239748193 0 0 0
85 1 3.8342867390862128 0.7379089471198774 10.436317775178347 0 0 0
86 1 5.1123822609138605 2.9516351996589236 10.436317781938241 0 0 0
89 1 6.390477739086213 0.7379089471198775 10.436317775178347 0 0 0
90 1 7.668573260913861 2.9516351996589236 10.43631778193824 0 0 0
98 1 3.8342867387885935 3.689543986290077 12.524863392135837 0 0 0
101 1 5.112382261211447 1.475817726109144 12.524863417074203 0 0 0
102 1 6.390477738788594 3.689543986290077 12.524863392135837 0 0 0
105 1 7.6685732612114474 1.475817726109144 12.524863417074203 0 0 0
78 1 8.946668739086352 2.2137264675109156 8.347773229341735 0 0 0
93 1 8.946668739086213 0.7379089471198775 10.436317775178347 0 0 0
94 1 10.22476426091386 2.9516351996589236 10.43631778193824 0 0 0
106 1 8.946668738788594 3.689543986290077 12.524863392135837 0 0 0
109 1 10.224764261211448 1.475817726109144 12.524863417074203 0 0 0
110 1 11.502859738788592 3.689543986290077 12.524863392135837 0 0 0
68 1 3.8342867390860724 6.641178943737655 8.347773243817626 0 0 0
71 1 5.112382260913751 4.427452705362505 8.347773230810414 0 0 0
72 1 6.390477739086072 6.641178943737656 8.347773243817624 0 0 0
75 1 7.66857326091375 4.427452705362505 8.347773230810414 0 0 0
83 1 3.8342867390861395 5.165361464008338 10.436317754263126 0 0 0
84 1 5.1123822609137175 7.3790877152654915 10.436317744902308 0 0 0
87 1 6.3904777390861405 5.165361464008338 10.436317754263126 0 0 0
88 1 7.668573260913717 7.37908771526549 10.43631774490231 0 0 0
99 1 5.11238226121125 5.903270199782878 12.52486341509257 0 0 0
100 1 6.390477738788707 8.116996432132995 12.524863409350676 0 0 0
103 1 7.6685732612112485 5.903270199782878 12.524863415092572 0 0 0
76 1 8.946668739086073 6.641178943737655 8.347773243817626 0 0 0
79 1 10.22476426091375 4.427452705362503 8.347773230810414 0 0 0
91 1 8.94666873908614 5.165361464008338 10.436317754263126 0 0 0
92 1 10.22476426091372 7.37908771526549 10.436317744902308 0 0 0
104 1 8.946668738788707 8.116996432132995 12.524863409350676 0 0 0
107 1 10.22476426121125 5.903270199782878 12.524863415092572 0 0 0
67 1 2.5561912609137503 4.427452705362505 8.347773230810414 0 0 0
80 1 11.502859739086073 6.641178943737655 8.347773243817624 0 0 0
95 1 11.50285973908614 5.165361464008338 10.436317754263126 0 0 0
96 1 12.780955260913718 7.3790877152654915 10.436317744902308 0 0 0
108 1 11.502859738788707 8.116996432132995 12.524863409350676 0 0 0
111 1 12.78095526121125 5.903270199782878 12.52486341509257 0 0 0
112 1 14.059050738788708 8.116996432132995 12.524863409350676 0 0 0
113 1 2.614177278016744e-07 1.827992106887401e-07 14.613453123269734 0 0 0
114 1 1.2780957385825384 2.213726439318727 14.61345309614538 0 0 0
117 1 2.556191261417728 1.827992101997168e-07 14.613453123269736 0 0 0
118 1 3.834286738582538 2.213726439318727 14.61345309614538 0 0 0
121 1 5.112382261417727 1.8279921028479004e-07 14.613453123269736 0 0 0
122 1 6.390477738582538 2.213726439318727 14.61345309614538 0 0 0
125 1 7.668573261417727 1.8279921042164058e-07 14.613453123269734 0 0 0
126 1 8.946668738582538 2.213726439318727 14.61345309614538 0 0 0
116 1 3.8342867385822226 6.641178930912504 14.613453131646995 0 0 0
119 1 5.112382261417556 4.427452699895361 14.613453100106687 0 0 0
120 1 6.390477738582223 6.641178930912504 14.613453131646994 0 0 0
123 1 7.6685732614175555 4.427452699895361 14.613453100106687 0 0 0
124 1 8.946668738582222 6.641178930912504 14.613453131646995 0 0 0
127 1 10.224764261417558 4.427452699895361 14.613453100106687 0 0 0
115 1 2.5561912614175575 4.427452699895361 14.613453100106687 0 0 0
128 1 11.502859738582224 6.641178930912504 14.613453131646994 0 0 0

Velocities

1 0 0 0
2 0 0 0
17 0 0 0
18 0 0 0
21 0 0 0
33 0 0 0
34 0 0 0
5 0 0 0
6 0 0 0
9 0 0 0
10 0 0 0
22 0 0 0
25 0 0 0
26 0 0 0
29 0 0 0
37 0 0 0
38 0 0 0
41 0 0 0
42 0 0 0
13 0 0 0
14 0 0 0
30 0 0 0
45 0 0 0
46 0 0 0
3 0 0 0
4 0 0 0
7 0 0 0
8 0 0 0
20 0 0 0
23 0 0 0
24 0 0 0
27 0 0 0
35 0 0 0
36 0 0 0
39 0 0 0
40 0 0 0
11 0 0 0
12 0 0 0
28 0 0 0
31 0 0 0
43 0 0 0
44 0 0 0
15 0 0 0
16 0 0 0
19 0 0 0
32 0 0 0
47 0 0 0
48 0 0 0
49 0 0 0
50 0 0 0
53 0 0 0
54 0 0 0
57 0 0 0
58 0 0 0
61 0 0 0
62 0 0 0
51 0 0 0
52 0 0 0
55 0 0 0
56 0 0 0
59 0 0 0
60 0 0 0
63 0 0 0
64 0 0 0
65 0 0 0
66 0 0 0
69 0 0 0
81 0 0 0
82 0 0 0
97 0 0 0
70 0 0 0
73 0 0 0
74 0 0 0
77 0 0 0
85 0 0 0
86 0 0 0
89 0 0 0
90 0 0 0
98 0 0 0
101 0 0 0
102 0 0 0
105 0 0 0
78 0 0 0
93 0 0 0
94 0 0 0
106 0 0 0
109 0 0 0
110 0 0 0
68 0 0 0
71 0 0 0
72 0 0 0
75 0 0 0
83 0 0 0
84 0 0 0
87 0 0 0
88 0 0 0
99 0 0 0
100 0 0 0
103 0 0 0
76 0 0 0
79 0 0 0
91 0 0 0
92 0 0 0
104 0 0 0
107 0 0 0
67 0 0 0
80 0 0 0
95 0 0 0
96 0 0 0
108 0 0 0
111 0 0 0
112 0 0 0
113 0 0 0
114 0 0 0
117 0 0 0
118 0 0 0
121 0 0 0
122 0 0 0
125 0 0 0
126 0 0 0
116 0 0 0
119 0 0 0
120 0 0 0
123 0 0 0
124 0 0 0
127 0 0 0
115 0 0 0
128 0 0 0
