ITEM: TIMESTEP
0
ITEM: NUMBER OF ATOMS
147
ITEM: BOX BOUNDS pp pp pp
0.0000000000000000e+00 1.1400361000000000e+01
0.0000000000000000e+00 1.2098903999999999e+01
0.0000000000000000e+00 1.2816801000000000e+01
ITEM: ATOMS id type x y z fx fy fz v_fmag
1 1 0.971902 11.547 8.15918 -1.35098e-05 -2.15155e-05 -2.51099e-05 3.57203e-05
2 1 6.09853 10.2931 3.93437 -7.99595e-07 -9.3699e-06 -1.27701e-05 1.58591e-05
3 1 3.95196 8.79139 6.44742 -4.23068e-05 -2.32465e-05 -2.23237e-05 5.31847e-05
4 1 5.0817 10.1095 8.29456 -1.75388e-05 -2.46894e-05 2.34352e-05 3.82934e-05
5 1 5.40902 9.06886 10.6078 -2.7606e-06 -1.49076e-05 1.46362e-05 2.10731e-05
6 1 6.45414 10.3727 12.4179 -9.64649e-05 -3.94153e-05 1.81694e-06 0.000104223
7 1 5.62456 11.3366 1.64864 -9.96337e-06 -6.30292e-06 -3.99797e-05 4.16818e-05
8 1 4.96286 9.02704 2.1296 2.69133e-05 3.93741e-05 -1.23243e-05 4.92598e-05
9 1 4.7514 11.1384 5.96209 2.32437e-05 -3.18179e-05 1.04571e-05 4.07677e-05
10 1 7.91988 1.85766 5.40121 5.42618e-05 1.2926e-05 -2.55576e-05 6.13564e-05
11 1 10.7524 1.34705 7.67935 -1.32993e-05 -3.31437e-06 -8.12656e-06 1.59342e-05
12 1 9.9601 0.877696 11.9236 -1.63673e-05 -3.48613e-05 -7.09715e-06 3.91608e-05
13 1 8.68287 1.79225 1.12048 -1.04752e-05 -3.68606e-05 -3.22383e-06 3.84555e-05
14 1 9.90243 3.38014 3.07722 1.88634e-05 -1.74608e-05 -1.2005e-05 2.83695e-05
15 1 9.10569 3.18589 7.3581 -2.18769e-05 -1.49119e-06 4.68335e-06 2.24222e-05
16 1 3.79103 10.926 10.3373 1.25074e-05 -2.83706e-05 -3.98844e-05 5.05182e-05
17 1 6.76371 8.25267 8.65071 -1.91192e-05 4.79615e-06 3.31366e-05 3.85562e-05
18 1 5.62603 6.92977 6.77162 -1.55949e-05 3.65503e-06 1.28324e-05 2.05239e-05
19 1 5.27592 7.95914 4.43692 -2.55719e-05 7.81743e-06 -1.16854e-05 2.91819e-05
20 1 7.499 2.91204 3.10194 2.00246e-05 -4.0174e-05 -1.65297e-05 4.78347e-05
21 1 6.64833 2.70532 7.42227 -6.24262e-07 4.46147e-05 -5.24847e-05 6.88876e-05
22 1 7.78516 3.99273 9.36758 -3.52016e-05 -6.18399e-05 4.35554e-05 8.3429e-05
23 1 7.02487 1.65414 9.73216 -2.25159e-06 -1.14665e-06 9.38599e-06 9.72015e-06
24 1 8.22981 2.91861 11.6874 -4.61175e-05 -5.83878e-05 -1.65103e-05 7.62139e-05
25 1 7.0311 3.90977 0.826748 2.02332e-05 -1.20134e-06 -3.36895e-05 3.93167e-05
26 1 8.61048 4.22949 5.05515 -4.05976e-05 -2.79247e-05 -4.42122e-06 4.94722e-05
27 1 9.75269 5.52602 7.01209 2.20282e-05 1.99657e-05 3.6044e-05 4.67231e-05
28 1 6.51759 4.86342 11.3586 4.37327e-05 -1.84516e-05 -5.81325e-05 7.50493e-05
29 1 5.3536 5.76223 0.540124 2.15642e-05 2.45287e-06 1.48173e-05 2.6279e-05
30 1 5.7986 4.79613 2.8327 -7.49542e-06 2.69323e-06 9.45194e-06 1.23602e-05
31 1 6.93739 6.1066 4.76016 -7.03133e-06 -3.33491e-05 2.65444e-05 4.31996e-05
32 1 8.46822 6.36461 9.00701 -1.9062e-05 -8.30812e-06 -1.45476e-05 2.53775e-05
33 1 9.53014 7.71979 11.0297 -3.0698e-05 3.41879e-05 1.40537e-05 4.80488e-05
34 1 4.1322 6.67831 2.48116 1.73787e-05 5.41891e-06 3.62151e-05 4.05329e-05
35 1 10.2209 4.41383 9.2636 -5.21464e-05 6.46972e-06 1.41564e-05 5.44197e-05
36 1 6.24417 1.56602 1.21748 5.03126e-05 9.65243e-06 -3.8562e-05 6.41214e-05
37 1 9.46565 2.06335 9.69773 -3.05134e-05 -2.7665e-05 1.47544e-05 4.37506e-05
38 1 9.43968 4.29519 0.785406 4.02348e-05 2.09986e-05 -2.85493e-05 5.36175e-05
39 1 6.23177 11.4184 10.1453 -1.73047e-05 7.73189e-06 5.19593e-06 1.96528e-05
40 1 9.24565 0.992473 3.40826 1.70157e-05 -1.01212e-05 -2.86864e-05 3.48552e-05
41 1 10.3196 2.3217 5.37699 -1.66831e-05 2.58082e-06 7.2159e-06 1.83591e-05
42 1 11.068 2.33313 1.13201 2.32839e-05 5.89514e-06 -1.30001e-05 2.73111e-05
43 1 10.2726 6.65419 0.40056 -5.77393e-06 -7.39887e-05 -3.23873e-06 7.42843e-05
44 1 10.6561 5.77699 2.70905 2.33802e-05 -4.89201e-06 2.96417e-05 3.80683e-05
45 1 7.20252 11.5959 5.78678 -9.59221e-06 -2.68448e-05 -3.31201e-05 4.36989e-05
46 1 9.05512 7.73654 2.28114 -1.67374e-05 2.53521e-05 4.80121e-05 5.68158e-05
47 1 10.5077 7.86757 6.65202 -7.21841e-07 -6.07091e-06 1.66769e-05 1.77622e-05
48 1 10.3087 9.07066 0.227311 -2.96168e-05 6.7751e-05 2.05001e-05 7.67307e-05
49 1 8.84795 9.74434 6.22013 -2.38413e-05 -1.50338e-05 2.42314e-05 3.71697e-05
50 1 9.98295 11.0802 8.14559 -3.07915e-05 -1.79574e-05 1.02768e-05 3.70972e-05
51 1 10.3226 10.1747 10.6648 3.90865e-05 2.30293e-05 5.98557e-05 7.51053e-05
52 1 10.3177 11.8623 1.42535 5.152e-06 -3.7284e-05 -5.30692e-06 3.80106e-05
53 1 10.1652 8.89683 4.28084 -4.91849e-05 2.53371e-06 4.8817e-05 6.93447e-05
54 1 6.83909 0.529794 3.44891 4.17717e-05 1.9129e-05 -7.59052e-06 4.65662e-05
55 1 8.79809 10.8515 12.6246 0.000116552 -6.00924e-05 7.68182e-05 0.000151975
56 1 7.89311 9.55861 10.598 -3.32264e-06 -2.36772e-05 -2.12953e-05 3.20178e-05
57 1 11.0391 4.67568 5.03867 3.49066e-05 8.39518e-06 3.84933e-05 5.26373e-05
58 1 8.94792 5.28909 11.2779 3.69335e-05 -3.16967e-07 4.97624e-05 6.19716e-05
59 1 11.3427 5.76266 11.2177 -7.98384e-05 -7.59055e-06 6.4995e-06 8.04613e-05
60 1 7.82896 6.35975 0.413934 -3.90034e-05 6.76082e-06 1.93488e-05 4.40607e-05
61 1 8.23509 5.31425 2.7293 1.86986e-05 2.52403e-06 2.65362e-05 3.25603e-05
62 1 9.36454 6.58258 4.68033 3.92322e-05 2.91838e-05 2.97911e-05 5.72571e-05
63 1 10.867 6.83812 8.99728 -6.24356e-05 -2.48854e-05 3.87889e-05 7.7602e-05
64 1 6.60018 7.1809 2.43394 1.53973e-05 -2.27388e-06 2.25963e-05 2.74379e-05
65 1 7.72026 8.45478 4.29919 3.02993e-05 -5.40066e-06 9.43518e-06 3.21906e-05
66 1 8.07544 7.4158 6.6783 1.683e-05 -1.89195e-05 1.27412e-05 2.83467e-05
67 1 9.21049 8.74222 8.64835 1.5679e-05 -4.98508e-06 4.10493e-06 1.69568e-05
68 1 7.50081 9.56433 1.73551 4.77559e-08 8.50849e-06 3.00628e-05 3.12437e-05
69 1 8.55075 10.7375 3.68252 1.74907e-05 -2.71667e-06 -2.99535e-06 1.7952e-05
70 1 6.40114 9.27143 6.30172 7.51177e-06 7.46327e-07 -1.86582e-05 2.01274e-05
71 1 7.53933 10.5811 8.1845 -5.27138e-05 1.83011e-05 -1.54897e-05 5.79103e-05
72 1 10.6384 3.36723 11.6403 9.56048e-06 -1.44275e-06 7.39119e-06 1.21702e-05
73 1 9.62562 12.0439 5.70725 3.79377e-05 -1.04589e-06 -1.51876e-05 4.08782e-05
74 1 7.39105 0.619882 12.0535 7.46066e-06 0.000124411 -1.50659e-06 0.000124644
75 1 5.5063 1.38498 5.50777 6.21682e-06 2.79305e-05 -7.05238e-06 2.94703e-05
76 1 1.64718 3.85847 11.5498 -4.17869e-05 -1.41656e-05 -8.00537e-06 4.4843e-05
77 1 0.481154 4.79159 0.722901 -2.38148e-05 3.46227e-05 -1.78375e-05 4.56514e-05
78 1 0.911509 3.8366 3.03201 3.41511e-05 2.5904e-05 5.41353e-06 4.32044e-05
79 1 2.07132 5.15325 4.91472 3.67836e-06 3.71408e-05 -4.89838e-05 6.15824e-05
80 1 3.6098 5.40602 9.14084 -4.51784e-05 -4.96627e-05 -1.15531e-05 6.81244e-05
81 1 4.69069 6.77599 11.1555 -5.43743e-05 -3.63949e-05 -1.77274e-05 6.77895e-05
82 1 4.89073 4.57646 7.13866 -1.64331e-05 -2.98274e-05 2.14838e-05 4.0265e-05
83 1 1.2997 7.28317 0.278057 -3.10935e-05 3.39791e-05 1.9782e-05 5.01269e-05
84 1 0.75234 5.92053 6.9684 -3.83027e-05 -2.3317e-07 -4.5357e-07 3.83061e-05
85 1 1.86595 7.29155 8.88363 3.25764e-05 1.91331e-05 -3.79438e-07 3.77815e-05
86 1 0.0764963 8.24907 2.25339 3.49797e-05 -5.40936e-07 1.78616e-05 3.92798e-05
87 1 1.23499 9.35559 4.17095 1.5804e-05 -1.40416e-06 3.13876e-05 3.51699e-05
88 1 0.217165 9.20038 8.6029 1.38972e-05 -6.24586e-06 3.82675e-05 4.11891e-05
89 1 0.499881 8.2198 10.9673 -3.21063e-05 1.96828e-05 -2.39192e-05 4.46134e-05
90 1 0.403378 7.03398 4.63042 6.58903e-06 2.09052e-05 2.15495e-05 3.07379e-05
91 1 3.76077 3.27176 5.22994 3.51571e-05 6.03794e-06 -1.2306e-05 3.77348e-05
92 1 2.09748 2.88745 1.04516 2.7836e-05 1.11045e-05 -6.3982e-05 7.0653e-05
93 1 3.33123 2.03008 11.8638 -4.27605e-05 3.75009e-06 -3.23925e-05 5.37754e-05
94 1 1.29972 0.405306 1.48989 4.04826e-05 5.06221e-06 -3.51621e-06 4.09491e-05
95 1 0.469721 2.49006 9.65986 5.21074e-05 8.7936e-06 2.17768e-05 5.71554e-05
96 1 0.905797 1.4482 11.9896 -2.02899e-06 -1.15262e-05 -3.72869e-05 3.90804e-05
97 1 1.31306 2.80358 5.37793 2.22144e-05 -1.83348e-05 -2.7219e-05 3.96298e-05
98 1 2.42764 4.08416 7.23495 -3.67186e-05 -2.91569e-06 -1.48076e-05 3.96992e-05
99 1 1.19231 4.87758 9.23346 -1.5212e-05 5.70098e-06 1.42923e-05 2.16373e-05
100 1 2.31402 6.22621 11.1089 5.04042e-06 2.7504e-05 -2.60435e-06 2.80831e-05
101 1 0.629757 0.420231 5.7441 -3.04362e-05 -3.2184e-05 -7.08498e-06 4.48594e-05
102 1 3.4347 11.982 7.98634 3.40584e-05 -3.5026e-05 -1.47285e-05 5.10268e-05
103 1 2.5769 11.7642 12.3352 -4.53047e-05 -8.65972e-06 -1.11195e-06 4.61383e-05
104 1 0.21737 1.46417 3.43806 2.89645e-05 -2.03586e-05 -5.8293e-06 3.58803e-05
105 1 2.61478 1.95418 3.35832 2.26724e-05 1.34426e-05 -1.8821e-05 3.23878e-05
106 1 1.76389 1.7619 7.64309 2.06352e-05 -4.99091e-06 -3.37204e-05 3.9847e-05
107 1 2.91457 3.0454 9.54495 5.71692e-06 -4.13306e-05 -1.93761e-05 4.60037e-05
108 1 2.14342 0.706311 9.98372 -6.02689e-06 2.77005e-05 -7.28957e-06 2.92708e-05
109 1 1.25188 9.84155 0.26651 5.32368e-06 3.81984e-05 3.27149e-05 5.0574e-05
110 1 8.3211 0.823872 7.71109 -1.74361e-06 1.51737e-05 5.23005e-05 5.44851e-05
111 1 10.9825 11.1586 3.7061 -2.08176e-05 3.12492e-05 4.26393e-05 5.68155e-05
112 1 1.95384 11.7032 3.81481 2.37569e-06 1.99606e-05 6.10473e-06 2.1008e-05
113 1 1.65707 6.22304 2.59888 2.31027e-05 -7.41215e-06 4.61565e-05 5.21449e-05
114 1 2.84205 7.49139 4.50204 4.93717e-05 6.02118e-06 5.46269e-06 5.00366e-05
115 1 3.18482 6.44281 6.84757 -1.90251e-05 4.45749e-06 6.96176e-07 1.95527e-05
116 1 4.29394 7.7658 8.78934 -1.21977e-05 8.93608e-06 -9.49711e-06 1.78559e-05
117 1 2.53289 8.5198 2.07691 -1.56159e-05 1.09973e-05 9.03848e-06 2.11304e-05
118 1 3.64328 9.82643 4.11263 -3.28406e-05 4.63446e-06 -3.0726e-06 3.3308e-05
119 1 6.00157 8.07677 0.130605 -4.7378e-05 -1.52562e-05 4.44437e-06 4.99717e-05
120 1 1.52526 8.31099 6.55538 8.07944e-06 3.67075e-05 1.09596e-05 3.91514e-05
121 1 2.90324 8.61506 10.8512 2.08874e-05 -2.09361e-05 7.2795e-06 3.04564e-05
122 1 4.02013 9.70349 12.7085 2.60277e-06 -1.63192e-05 3.76871e-05 4.11511e-05
123 1 3.12742 10.8519 1.84669 5.84872e-06 3.45539e-05 1.8008e-05 3.94014e-05
124 1 2.30781 10.6648 6.1403 -2.7882e-05 -4.11738e-06 -5.76054e-05 6.41307e-05
125 1 1.2982 10.5688 10.5508 -3.57483e-05 -9.99733e-06 1.42209e-05 3.97508e-05
126 1 4.38275 0.0780261 3.65444 -2.00085e-05 1.33209e-05 -1.5228e-05 2.84548e-05
127 1 2.63083 9.6513 8.49487 -9.90485e-06 -1.95091e-07 2.31112e-05 2.5145e-05
128 1 7.14609 7.21421 10.9497 1.17813e-05 1.42151e-05 -5.31144e-06 1.92115e-05
129 1 6.02106 5.90398 9.09209 3.50455e-06 -8.3653e-06 2.21519e-05 2.39367e-05
130 1 4.5018 5.62208 4.82573 5.26262e-05 -2.04557e-05 -3.58963e-05 6.69066e-05
131 1 3.06507 0.919448 5.66117 4.20935e-05 -1.20707e-05 -1.76986e-05 4.72314e-05
132 1 5.88471 0.352126 7.82065 -2.0994e-05 -9.03378e-06 -7.3e-06 2.39926e-05
133 1 4.94944 0.152854 12.181 6.9705e-05 -3.50045e-05 -2.89803e-05 8.32104e-05
134 1 3.79329 1.06785 1.36851 4.30254e-05 2.68955e-05 -2.55425e-05 5.68065e-05
135 1 5.05625 2.43443 3.22741 1.24859e-05 5.85298e-05 -1.72551e-05 6.22846e-05
136 1 4.20335 2.22782 7.53128 -7.90699e-06 1.5621e-05 -5.32209e-05 5.60268e-05
137 1 5.34754 3.53615 9.43007 1.03664e-05 2.75668e-05 -3.53972e-05 4.60473e-05
138 1 4.586 1.18153 9.85341 -2.05382e-06 -1.81004e-05 -3.34139e-05 3.80569e-05
139 1 5.7689 2.51639 11.7383 2.58669e-05 7.83805e-06 1.22658e-05 2.96813e-05
140 1 4.55364 3.42465 0.920739 4.88531e-06 1.65511e-05 -4.37247e-05 4.7007e-05
141 1 6.19799 3.74633 5.13262 2.71397e-05 9.49971e-06 1.8285e-05 3.40757e-05
142 1 7.32843 5.06076 7.0802 -4.0659e-05 -7.5652e-06 1.49342e-06 4.13838e-05
143 1 4.08056 4.38391 11.4303 -5.72152e-05 2.81992e-06 -2.916e-05 6.42793e-05
144 1 2.90494 5.36039 0.593555 7.4381e-06 2.90146e-05 -4.50321e-05 5.40838e-05
145 1 3.34165 4.32025 2.90281 1.52455e-05 6.99778e-06 -1.68319e-06 1.68591e-05
146 1 11.2916 10.193 6.18035 2.84639e-05 4.16845e-05 1.48067e-05 5.26026e-05
147 1 8.67414 11.8761 10.0801 7.99443e-06 3.85456e-05 1.81858e-05 4.33636e-05
