ITEM: TIMESTEP
0
ITEM: NUMBER OF ATOMS
143
ITEM: BOX BOUNDS pp pp pp
0.0000000000000000e+00 1.1396901000000000e+01
0.0000000000000000e+00 1.2680864000000000e+01
0.0000000000000000e+00 1.2228524999999999e+01
ITEM: ATOMS id type x y z fx fy fz v_fmag
1 1 0.872376 3.00593 2.4141 -2.84088e-05 -2.13334e-05 2.17436e-05 4.16528e-05
2 1 7.64322 4.92154 5.06906 -8.09717e-06 3.59562e-05 -1.21213e-06 3.68766e-05
3 1 6.88714 6.51489 6.95202 -1.95783e-05 2.08289e-06 -3.55238e-05 4.06151e-05
4 1 5.35232 5.45846 8.96805 -3.74996e-05 1.32619e-05 -4.65786e-06 4.00474e-05
5 1 7.61288 6.27057 10.952 3.70039e-05 2.28103e-05 -3.18201e-06 4.35859e-05
6 1 7.82324 7.24416 1.18975 1.16994e-05 -1.00253e-05 -1.29873e-05 2.01507e-05
7 1 7.1692 8.7074 3.13067 5.39917e-05 2.75392e-05 -1.82316e-05 6.32922e-05
8 1 8.96534 5.86503 2.99622 -1.35004e-05 -3.1306e-05 1.36958e-05 3.6741e-05
9 1 5.81992 7.8883 5.14156 2.66018e-05 1.79405e-05 -1.80721e-05 3.68255e-05
10 1 6.3829 7.74445 9.08649 5.91864e-05 6.54932e-06 2.42467e-05 6.42949e-05
11 1 6.61496 8.62011 11.5887 5.14905e-05 -3.45536e-05 1.4118e-05 6.35967e-05
12 1 6.05337 10.0458 1.35733 9.49775e-06 -4.78061e-05 -2.40228e-06 4.87996e-05
13 1 7.76701 11.2239 2.77592 -1.10336e-06 2.6716e-05 -5.37779e-05 6.00585e-05
14 1 6.46311 10.3621 4.92084 3.81954e-07 5.27202e-06 -3.41031e-05 3.45104e-05
15 1 6.76846 11.0385 7.99357 -3.47704e-05 1.71432e-05 2.55283e-05 4.64173e-05
16 1 7.64667 8.94099 6.87126 -4.38335e-06 3.9121e-05 -6.92908e-05 7.96924e-05
17 1 5.42878 10.0488 9.77956 2.73468e-05 3.31031e-06 2.22763e-05 3.54265e-05
18 1 8.7697 4.92619 0.639091 1.14692e-05 -2.50632e-05 2.47876e-05 3.70693e-05
19 1 7.25844 2.69659 8.87994 -7.67261e-06 -3.80833e-05 4.93328e-05 6.27928e-05
20 1 2.97779 10.3643 9.93958 1.11059e-05 3.98362e-05 -2.87749e-05 5.03811e-05
21 1 5.00062 11.3454 11.8534 -7.1545e-05 9.9533e-05 -9.9505e-05 0.000157882
22 1 6.66462 12.6707 0.888941 1.81304e-07 4.62026e-05 -2.57089e-06 4.62745e-05
23 1 8.11236 11.7866 6.10239 -3.31335e-05 5.75074e-06 4.10629e-05 5.3076e-05
24 1 7.02014 11.8897 10.5534 -2.27156e-05 -4.9714e-08 -1.05312e-06 2.27401e-05
25 1 8.31415 1.36186 2.30057 -1.84478e-05 9.93132e-06 7.71415e-06 2.23262e-05
26 1 8.88009 3.84891 10.615 1.61381e-05 2.42094e-05 -1.73106e-05 3.38555e-05
27 1 6.96706 0.509159 4.24416 -6.39865e-05 5.80603e-06 6.52849e-06 6.45802e-05
28 1 8.36111 0.164421 8.55575 -1.71558e-05 -2.93641e-05 2.43541e-05 4.18294e-05
29 1 8.09206 1.43419 10.7505 2.22761e-05 -1.29676e-05 2.63381e-05 3.68521e-05
30 1 7.2938 2.77688 0.464397 4.0331e-06 -2.29059e-05 1.8281e-05 2.95828e-05
31 1 9.82199 3.44384 2.53903 -4.75876e-05 1.21835e-05 9.72546e-08 4.91226e-05
32 1 8.51693 2.46172 4.58262 -4.83553e-06 2.17652e-05 4.74296e-05 5.24087e-05
33 1 8.70741 3.5433 6.90653 -1.85615e-05 1.48898e-05 1.55589e-06 2.38465e-05
34 1 9.62705 1.0331 6.44409 -3.22356e-06 3.20291e-05 2.97215e-05 4.38135e-05
35 1 4.27298 11.4682 7.95789 -4.10948e-05 -6.65502e-05 9.49732e-06 7.87903e-05
36 1 8.19853 10.4107 0.214859 -1.28359e-06 1.25207e-05 4.66695e-06 1.34237e-05
37 1 10.581 11.2295 5.95126 -5.23972e-06 -6.32333e-06 -3.04769e-05 3.15639e-05
38 1 8.28515 7.35026 4.95375 4.38997e-05 2.26203e-05 -4.53912e-05 6.70763e-05
39 1 10.0542 8.39161 6.55321 1.8331e-06 1.0249e-05 -1.00413e-05 1.44648e-05
40 1 8.81684 7.44894 8.79238 1.20835e-05 2.84346e-05 -1.70916e-06 3.09428e-05
41 1 9.07377 8.18935 11.5471 5.19191e-05 -3.76628e-06 3.55325e-05 6.30265e-05
42 1 9.37091 9.0267 2.07254 1.27039e-05 -1.51165e-05 -3.10198e-05 3.67712e-05
43 1 10.0963 11.3677 2.06065 -3.85757e-05 6.15542e-06 6.12637e-05 7.26582e-05
44 1 10.4797 7.62982 3.84914 3.3261e-05 6.16549e-06 -2.30132e-05 4.09135e-05
45 1 8.91344 9.80598 4.65189 2.3324e-05 4.30908e-05 -4.16068e-05 6.42803e-05
46 1 7.92161 9.59897 9.76323 -9.86218e-06 -1.06381e-05 6.75629e-06 1.60025e-05
47 1 10.7138 9.84896 0.0411739 1.36043e-05 1.15854e-05 -7.70437e-06 1.94591e-05
48 1 0.600482 10.9915 10.1885 -3.12364e-06 2.96064e-06 -2.375e-06 4.9156e-06
49 1 10.3942 4.63622 8.66833 -2.26799e-05 8.37679e-06 -3.87841e-06 2.44865e-05
50 1 0.173754 6.28061 5.62329 -6.68701e-07 -2.53939e-05 -5.92712e-05 6.44855e-05
51 1 11.2128 6.92885 8.40523 -1.85068e-05 -4.19576e-06 -3.84008e-06 1.93611e-05
52 1 9.32061 10.4722 7.9613 1.18964e-05 1.6556e-06 2.53048e-05 2.80107e-05
53 1 9.03098 0.0384454 0.306831 6.5877e-05 -1.46464e-05 4.46221e-05 8.09038e-05
54 1 10.3887 6.92879 1.09882 4.09997e-05 -3.63819e-05 1.87821e-05 5.7943e-05
55 1 7.87567 5.13347 8.75566 -3.2666e-05 9.57604e-06 1.74191e-05 3.82386e-05
56 1 9.52918 11.3305 10.4324 1.76484e-05 1.59261e-05 -8.26178e-06 2.51667e-05
57 1 10.7683 1.05928 2.0645 -6.91922e-06 -1.1295e-05 1.23488e-05 1.81093e-05
58 1 9.42153 12.6276 4.12936 -2.54476e-05 3.16096e-05 1.44626e-05 4.30803e-05
59 1 10.8466 12.4467 8.36729 -1.30846e-05 -4.46547e-06 1.86984e-05 2.32546e-05
60 1 10.4629 0.889643 10.6153 9.13565e-05 -1.34909e-05 4.09671e-05 0.000101026
61 1 9.76804 2.44733 0.2436 -1.50209e-06 -1.26876e-05 2.81764e-05 3.09377e-05
62 1 10.15 6.08155 10.7751 2.207e-05 1.66998e-05 4.01249e-05 4.8744e-05
63 1 10.9305 2.01228 4.42561 -2.11535e-05 -1.41842e-05 1.00856e-05 2.73931e-05
64 1 9.75931 2.20731 8.72803 6.55805e-07 4.97021e-06 1.20364e-05 1.30387e-05
65 1 11.3581 3.20244 10.4526 -3.70315e-05 1.09255e-05 1.08078e-05 4.00937e-05
66 1 11.1836 4.46509 0.488728 6.30326e-06 1.75006e-05 -4.73917e-06 1.91954e-05
67 1 0.00675863 5.37147 2.95215 8.15277e-06 -4.15221e-05 1.01941e-05 4.35256e-05
68 1 10.0552 4.43929 4.88607 -3.62366e-05 2.61098e-05 -3.55127e-05 5.70611e-05
69 1 9.37239 5.97047 6.78767 5.22081e-06 2.3507e-05 -3.24702e-06 2.42977e-05
70 1 11.1325 3.01734 6.78842 -6.32322e-05 2.58956e-06 7.61883e-06 6.37422e-05
71 1 11.1954 9.96664 3.77289 4.41064e-05 -5.3262e-05 5.49914e-05 8.83531e-05
72 1 4.05753 10.6015 5.42077 -1.00955e-05 -4.282e-05 -4.22945e-05 6.1027e-05
73 1 3.55036 10.6839 1.52607 -4.00751e-05 -3.52884e-05 -1.31229e-05 5.49863e-05
74 1 3.17665 2.05982 11.2168 1.6138e-06 3.25842e-05 -5.32164e-05 6.24205e-05
75 1 2.22597 3.94783 0.466367 2.17099e-05 2.29451e-05 -7.51214e-06 3.24689e-05
76 1 4.96084 4.3665 2.83786 -1.89299e-05 -4.08923e-06 4.38851e-05 4.79684e-05
77 1 3.60238 3.48415 4.78588 -3.97698e-05 -1.16627e-05 9.06557e-06 4.24245e-05
78 1 3.74449 4.38889 7.26461 -3.87451e-05 -5.53235e-06 1.00989e-05 4.04201e-05
79 1 2.13672 3.38092 9.21564 -2.21424e-05 -9.37462e-06 -2.54632e-05 3.50221e-05
80 1 3.17567 1.24431 8.3572 -9.16787e-06 0.000126612 -0.000149351 0.000196011
81 1 3.75071 4.59502 10.8609 -8.05371e-06 4.32205e-06 4.18765e-05 4.28624e-05
82 1 4.07945 6.78471 3.40816 -2.77469e-06 -1.91879e-06 -1.4405e-05 1.47948e-05
83 1 2.69056 5.79941 5.39028 1.58658e-05 -1.6514e-05 -9.0777e-06 2.46341e-05
84 1 1.91986 7.30921 7.2624 2.99983e-05 -0.000101615 5.96912e-05 0.000121609
85 1 1.11287 5.35176 10.6902 4.02359e-06 -2.02165e-05 5.70993e-05 6.0706e-05
86 1 2.72868 7.08289 11.361 2.93782e-05 -1.6453e-05 7.50416e-07 3.368e-05
87 1 2.92089 8.20844 1.61616 1.25121e-05 -5.73412e-05 -2.71807e-06 5.87533e-05
88 1 3.85373 5.75977 0.982424 2.35988e-05 -1.1219e-05 -2.0727e-05 3.33523e-05
89 1 2.27058 9.61745 3.62746 3.30169e-05 -3.4758e-05 -3.80579e-05 6.12098e-05
90 1 4.73964 2.09067 6.66863 -3.5218e-05 -1.70977e-05 3.27777e-05 5.10589e-05
91 1 3.31819 2.50122 2.3669 -1.68874e-05 -3.06277e-05 2.55173e-05 4.32941e-05
92 1 2.16075 2.60227 6.64162 1.15603e-05 -4.02037e-05 8.88098e-05 9.8169e-05
93 1 0.669496 0.618127 6.30694 -2.39546e-05 6.79055e-06 -3.25428e-06 2.51103e-05
94 1 0.874272 1.90236 0.0748787 1.54776e-05 1.8837e-05 -1.75225e-05 3.00237e-05
95 1 2.48424 4.89047 2.91264 -2.4203e-05 -1.69171e-05 1.83487e-05 3.47657e-05
96 1 1.09518 3.97967 4.82797 -1.03038e-05 -1.15585e-05 -5.40504e-05 5.62247e-05
97 1 1.20557 4.89767 7.41168 1.34218e-05 2.26455e-05 -4.82865e-05 5.4996e-05
98 1 1.97549 1.59584 4.28234 -5.18463e-05 -1.90725e-05 -8.28194e-06 5.58604e-05
99 1 1.37917 6.32688 1.0505 3.05995e-05 -1.92268e-06 -3.18243e-05 4.41906e-05
100 1 0.468462 12.3247 3.8552 -3.56784e-05 9.70359e-06 -1.38865e-05 3.94961e-05
101 1 4.17894 0.60377 0.963652 2.48148e-05 1.535e-05 -5.55161e-05 6.27171e-05
102 1 3.12505 0.20121 6.10857 -3.15808e-05 2.10507e-05 1.90474e-05 4.24651e-05
103 1 1.39507 0.794687 10.0049 -3.87598e-05 2.79286e-05 -2.54376e-06 4.78414e-05
104 1 1.82241 0.504913 1.84241 8.11682e-07 9.79773e-06 2.79434e-05 2.96224e-05
105 1 0.0539 12.2194 0.110466 -1.67937e-05 5.98041e-05 4.31703e-05 7.56454e-05
106 1 1.5684 7.22044 3.55448 -4.17564e-06 -4.41273e-06 -7.57908e-05 7.60339e-05
107 1 5.31139 11.8253 2.9783 -2.12597e-05 3.87641e-05 -1.92979e-05 4.82394e-05
108 1 0.86746 8.66923 5.55112 5.33435e-05 2.31281e-05 -6.56067e-05 8.76623e-05
109 1 1.48313 8.34759 9.59056 2.57994e-05 -5.51594e-06 -7.11301e-06 2.73245e-05
110 1 4.74034 2.95319 9.18246 -1.05835e-06 6.33129e-06 1.20864e-05 1.36853e-05
111 1 6.32279 4.07744 10.8039 -7.07193e-06 2.32526e-05 2.05034e-05 3.17976e-05
112 1 6.30963 5.27352 0.814563 2.307e-06 -1.9824e-05 1.96857e-07 1.99587e-05
113 1 6.53231 6.28562 3.23016 1.34969e-05 -7.56137e-06 3.01719e-05 3.3907e-05
114 1 5.18475 5.39751 5.2363 -2.27264e-05 -1.54397e-05 2.96054e-05 4.039e-05
115 1 4.396 6.84945 7.14786 -2.61756e-06 -5.49164e-05 -1.11498e-05 5.6098e-05
116 1 6.24019 4.03601 7.06736 8.1235e-06 8.95283e-06 3.58956e-05 3.78766e-05
117 1 2.82254 5.93167 9.03986 -2.26422e-05 3.44481e-05 -7.82801e-05 8.8471e-05
118 1 5.38033 7.65655 1.39925 7.08652e-06 -1.60006e-05 4.47639e-06 1.80631e-05
119 1 4.70318 9.28045 3.32875 1.55971e-05 -2.24264e-05 -1.10554e-05 2.94692e-05
120 1 3.35088 8.22585 5.35548 6.16586e-05 -8.96797e-06 -2.68464e-05 6.7845e-05
121 1 5.22383 9.20385 7.23348 -1.86553e-05 3.59093e-05 1.11234e-05 4.1967e-05
122 1 3.95267 8.09898 9.31068 -6.60174e-05 -4.82237e-05 1.03139e-05 8.24026e-05
123 1 4.19016 9.0259 11.8048 1.62233e-05 -5.86166e-06 -2.61874e-05 3.13582e-05
124 1 5.15924 6.65248 11.1695 6.06607e-05 -7.3144e-06 2.05826e-05 6.44737e-05
125 1 2.7833 9.55165 7.48486 -3.53001e-06 6.73921e-05 1.16169e-06 6.74945e-05
126 1 6.09259 2.98208 4.71598 -5.52179e-05 -1.41553e-05 3.82707e-05 6.86589e-05
127 1 4.78084 3.28389 0.507683 -2.64727e-05 1.97752e-05 -1.01388e-05 3.45638e-05
128 1 1.71905 9.39566 11.9329 2.44364e-05 -2.17298e-05 -3.28184e-05 4.63289e-05
129 1 1.10037 10.7122 1.76277 1.947e-05 -1.23959e-05 9.51683e-08 2.30814e-05
130 1 2.93395 11.9756 3.64488 8.95688e-06 -1.64411e-05 -8.392e-06 2.05173e-05
131 1 1.60991 10.9824 5.68573 3.56977e-06 -2.32224e-05 -3.89028e-05 4.54473e-05
132 1 1.83633 11.8337 8.11349 -3.11991e-05 1.07029e-05 -2.64773e-05 4.22964e-05
133 1 0.351525 9.82557 7.78633 2.09482e-05 1.64866e-05 -1.81067e-05 3.22256e-05
134 1 7.41033 3.88939 2.7084 -2.0807e-05 9.49568e-06 1.35674e-05 2.65927e-05
135 1 2.41664 11.9466 11.8899 5.69784e-05 1.08192e-05 -1.9424e-05 6.11628e-05
136 1 3.99692 12.6206 10.14 7.30468e-05 -0.000117105 0.000207956 0.00024959
137 1 5.84406 1.90366 2.36552 -1.55759e-05 -1.64092e-05 -1.86397e-08 2.26245e-05
138 1 4.47348 1.14301 4.26448 -2.931e-05 -3.51126e-05 -4.90239e-06 4.6e-05
139 1 7.20801 1.55683 6.61958 -2.27334e-05 1.25761e-05 2.88835e-05 3.88487e-05
140 1 5.83498 0.667789 8.62922 9.20399e-06 2.69842e-05 -2.27104e-05 3.64503e-05
141 1 5.66789 1.45907 11.1691 8.27925e-05 1.5384e-05 -1.8229e-05 8.61601e-05
142 1 5.61014 12.4142 6.13727 1.81074e-05 9.2649e-06 -4.66001e-06 2.0867e-05
143 1 10.4923 9.01831 9.77288 -1.89647e-05 -4.48933e-06 2.58228e-05 3.23517e-05
