ITEM: TIMESTEP
0
ITEM: NUMBER OF ATOMS
135
ITEM: BOX BOUNDS pp pp pp
0.0000000000000000e+00 1.1436527999999999e+01
0.0000000000000000e+00 1.1745825000000000e+01
0.0000000000000000e+00 1.1261291999999999e+01
ITEM: ATOMS id type x y z fx fy fz v_fmag
1 1 3.68746 1.31958 0.54011 -7.22733e-05 3.97015e-05 -0.000120321 0.000145866
2 1 10.6841 6.7879 3.55201 -5.28976e-05 -6.42274e-07 3.09559e-05 6.12931e-05
3 1 9.58379 4.07436 11.2611 6.06935e-05 -5.41592e-05 -2.56229e-05 8.52845e-05
4 1 9.54087 3.3504 8.65863 5.42562e-06 -1.84092e-05 1.16757e-05 2.24646e-05
5 1 10.8356 4.55003 6.9854 1.05704e-05 -1.21735e-05 -1.15815e-05 1.98509e-05
6 1 9.56219 4.75181 2.66233 1.7245e-05 -7.46443e-06 6.17983e-05 6.45921e-05
7 1 11.0193 2.33574 10.2712 1.95659e-05 -1.52179e-05 5.7815e-05 6.29045e-05
8 1 9.48341 2.69046 6.02281 -1.57511e-05 -3.55347e-05 -3.38646e-05 5.15521e-05
9 1 10.9225 3.78151 4.39093 -8.18729e-06 1.17037e-05 6.06257e-05 6.22855e-05
10 1 9.55923 2.03889 3.28622 1.35446e-05 -1.32774e-05 -1.7904e-05 2.60825e-05
11 1 11.0216 3.09261 1.64144 -1.44343e-05 3.57037e-05 -7.48768e-06 3.92322e-05
12 1 6.31853 0.7954 9.39452 -1.50945e-05 3.33156e-05 4.67187e-05 5.9333e-05
13 1 7.92261 1.74751 7.70224 -3.95085e-05 -3.76715e-05 -1.96351e-05 5.80138e-05
14 1 6.41633 0.245788 6.52631 -2.63958e-05 2.16994e-05 -8.2303e-06 3.51474e-05
15 1 10.9774 0.997811 4.9894 7.53366e-06 -9.46088e-06 -2.20148e-05 2.5118e-05
16 1 10.5908 7.55019 6.1421 -3.5112e-05 6.47458e-05 9.89428e-06 7.43154e-05
17 1 9.59243 1.37377 0.714776 5.5033e-05 -2.02598e-05 -1.52089e-05 6.05838e-05
18 1 5.19217 10.017 5.60295 -3.05179e-05 -1.09668e-05 6.12526e-05 6.93072e-05
19 1 5.16002 9.39051 2.87687 1.07117e-05 -2.71381e-05 -2.57595e-05 3.89201e-05
20 1 6.22759 10.7448 1.08561 1.17444e-05 3.56462e-05 -4.20679e-05 5.63763e-05
21 1 6.41778 9.98521 9.98189 1.24276e-05 -4.37588e-05 3.28591e-05 5.61159e-05
22 1 5.30625 7.95495 9.0442 2.92908e-05 -2.9884e-05 1.25248e-05 4.36792e-05
23 1 3.90775 8.85236 7.29676 3.84368e-06 5.44564e-05 -7.32583e-06 5.50812e-05
24 1 6.59099 8.30933 4.49884 -1.19048e-05 -3.13219e-05 -7.84965e-06 3.44151e-05
25 1 7.83281 8.90371 0.307105 2.30272e-06 -6.28893e-06 -1.96418e-05 2.07522e-05
26 1 6.71157 6.84616 10.6829 4.82442e-06 -6.09261e-05 2.38209e-05 6.5595e-05
27 1 6.73482 6.23735 7.99694 -1.58114e-05 -4.15583e-05 3.9226e-05 5.92939e-05
28 1 7.98996 7.29778 6.17864 -1.28987e-05 4.75985e-05 1.51469e-05 5.1589e-05
29 1 8.06185 6.48687 3.5954 -9.02478e-06 -1.6376e-05 -3.35439e-05 3.84033e-05
30 1 9.24885 7.8289 1.92055 -9.89039e-06 2.75898e-05 -1.9891e-05 3.54213e-05
31 1 8.14613 5.13254 9.64181 4.36199e-05 -3.52456e-05 1.24064e-06 5.60936e-05
32 1 2.44284 10.6078 8.26153 1.97462e-05 1.56411e-06 -1.57465e-05 2.53043e-05
33 1 8.12017 4.45118 7.02091 -1.67186e-05 -6.60216e-05 4.35375e-05 8.08324e-05
34 1 9.35559 6.37373 7.9144 -5.59827e-06 -1.16002e-05 -1.72125e-05 2.14983e-05
35 1 10.7381 8.84314 0.30933 -2.33976e-06 1.63275e-05 -5.18245e-05 5.4386e-05
36 1 2.06296 4.81565 6.91873 -2.81866e-05 -3.69651e-06 2.23771e-05 3.61785e-05
37 1 2.11384 6.06899 0.931904 -1.52512e-05 3.25578e-05 4.15063e-05 5.49126e-05
38 1 2.27151 2.42601 10.2089 1.51938e-05 -4.84415e-05 8.24513e-05 9.68279e-05
39 1 0.617873 5.80348 5.2603 1.98004e-06 3.36629e-05 4.20965e-05 5.39373e-05
40 1 0.9604 1.32009 0.679691 3.33414e-05 -2.33239e-05 -7.79705e-06 4.14301e-05
41 1 11.0298 0.320973 2.4047 3.4745e-05 -1.98756e-05 1.96195e-05 4.45778e-05
42 1 0.803713 4.27883 11.1583 -2.31373e-06 5.70451e-05 5.85009e-07 5.7095e-05
43 1 10.7895 10.7527 8.18706 -3.16834e-05 1.15724e-05 -1.40475e-05 3.65389e-05
44 1 9.32362 0.106817 6.56079 -3.18403e-05 2.09219e-05 -8.62078e-06 3.90621e-05
45 1 7.81228 10.9376 8.24367 -1.33469e-05 1.52289e-05 -9.4884e-06 2.23627e-05
46 1 9.30917 11.1971 3.89903 1.65045e-05 -1.14716e-05 1.12038e-05 2.30114e-05
47 1 10.7925 9.48189 2.97044 -1.18378e-05 1.6907e-06 4.89663e-05 5.04053e-05
48 1 10.9453 11.3995 10.9338 -4.96651e-05 -1.33391e-06 1.12231e-05 5.09348e-05
49 1 10.6106 8.19499 8.88503 -1.02437e-06 3.04801e-06 -6.73553e-06 7.46372e-06
50 1 9.33395 7.07223 10.6143 -9.91997e-06 -4.17556e-05 -3.12332e-05 5.30796e-05
51 1 9.17526 9.19603 7.21458 -4.94459e-05 4.16296e-05 -2.3587e-05 6.8806e-05
52 1 10.7904 5.31455 9.53981 4.90496e-06 -2.28151e-05 -2.9542e-05 3.76473e-05
53 1 0.595662 6.55021 7.84165 -1.87344e-05 -3.48247e-05 -3.32054e-05 5.16366e-05
54 1 7.9613 11.6428 10.9483 3.88961e-05 -1.2886e-05 4.84878e-05 6.34825e-05
55 1 9.48084 0.722088 9.27226 2.98201e-05 -1.88095e-05 2.01731e-06 3.53144e-05
56 1 7.9224 1.18621 4.87323 -2.44335e-05 1.64795e-06 -3.94198e-05 4.64072e-05
57 1 7.84259 0.522545 2.23581 -1.40673e-05 -2.45398e-06 5.36433e-05 5.55114e-05
58 1 5.16476 10.7371 8.13523 4.56989e-06 3.86825e-05 -9.63455e-05 0.000103922
59 1 6.37631 11.3016 3.93122 -4.32364e-05 6.97213e-05 -8.41779e-05 0.000117543
60 1 7.70813 9.63889 2.76992 -2.81025e-05 -6.65193e-06 -2.89402e-06 2.90237e-05
61 1 9.38105 10.5729 1.32715 -9.30303e-06 1.06184e-05 -5.25253e-06 1.50628e-05
62 1 9.28956 9.92659 9.91792 -2.92844e-05 7.70001e-06 -1.52254e-05 3.38921e-05
63 1 7.91109 8.1498 9.02224 2.22191e-05 -3.05319e-06 -3.14313e-06 2.26471e-05
64 1 6.5951 8.99688 7.24878 -8.43933e-06 5.8853e-05 -2.91266e-05 6.62062e-05
65 1 9.15443 8.54658 4.44122 4.43086e-06 5.3358e-05 3.95303e-05 6.65534e-05
66 1 7.79407 10.2311 5.53573 3.00504e-05 6.4184e-06 4.91811e-05 5.79914e-05
67 1 0.854522 3.50319 8.58688 -1.332e-05 -1.66241e-07 -3.37265e-05 3.62619e-05
68 1 9.45599 5.53051 5.28963 -7.52887e-06 1.31739e-05 3.19235e-05 3.53461e-05
69 1 10.7815 6.03804 0.968731 -4.42862e-05 2.83722e-05 1.01471e-05 5.35651e-05
70 1 0.927781 0.57757 9.21293 2.95808e-05 -6.10042e-06 8.37504e-06 3.13429e-05
71 1 2.3819 1.70568 7.70022 1.43004e-05 -2.21022e-07 3.47112e-05 3.75423e-05
72 1 0.991239 11.6543 6.62597 -6.55125e-06 1.27353e-06 9.48815e-06 1.16002e-05
73 1 4.96686 1.32863 4.93304 -1.47262e-05 3.62111e-05 -0.000100288 0.000107638
74 1 4.93878 0.61067 2.39309 8.87494e-05 -4.70275e-05 0.000108825 0.000148091
75 1 1.01356 10.9832 4.05674 2.39279e-05 -3.86567e-06 -1.79667e-05 3.0171e-05
76 1 0.939936 10.3461 1.36916 2.81274e-06 2.08913e-05 1.37957e-05 2.51929e-05
77 1 2.24018 11.312 10.8858 8.55645e-05 1.42741e-05 5.91335e-05 0.000104985
78 1 0.821585 9.67647 9.85039 -4.95339e-05 -7.84625e-05 -4.26017e-06 9.28876e-05
79 1 0.794804 9.04951 7.24366 3.00532e-05 5.24807e-05 -2.1517e-05 6.41904e-05
80 1 0.819526 8.43035 4.59742 2.71653e-05 1.17863e-05 4.19807e-06 2.99081e-05
81 1 2.3584 8.67849 0.288078 -3.16201e-05 3.75715e-05 -4.31874e-05 6.53957e-05
82 1 0.677834 7.15627 10.5219 -2.82755e-05 2.02225e-05 -1.51753e-05 3.79308e-05
83 1 2.06032 5.48383 9.46108 -7.80483e-06 4.94891e-05 -1.56446e-06 5.01251e-05
84 1 6.61578 4.12727 0.00041247 1.58027e-05 1.0787e-05 3.47452e-07 1.91365e-05
85 1 2.26695 7.35558 6.26768 -5.75994e-06 -2.0005e-05 -1.86408e-06 2.0901e-05
86 1 3.77352 7.54271 1.98495 2.44854e-05 3.37015e-05 -1.42623e-05 4.40311e-05
87 1 3.48847 4.39119 11.1204 -2.02181e-05 -5.41958e-08 4.76101e-06 2.07712e-05
88 1 3.51108 3.74267 8.53679 4.76721e-05 -1.48672e-05 -4.62197e-05 6.80435e-05
89 1 3.69362 5.64238 5.32042 6.67904e-05 1.68741e-05 -1.73929e-05 7.10507e-05
90 1 0.750954 4.98671 2.62719 -9.37677e-06 4.83596e-06 -1.96888e-06 1.07325e-05
91 1 5.16222 5.81799 0.985086 -3.27904e-05 -2.80477e-05 -1.37123e-05 4.52759e-05
92 1 4.92035 2.67706 10.1885 -8.89305e-05 1.45132e-05 7.1492e-05 0.000115023
93 1 0.922077 2.79402 6.05846 1.86504e-05 2.69901e-06 2.70987e-05 3.3007e-05
94 1 2.10968 4.06276 4.36176 -1.52104e-05 -1.24403e-05 -2.39645e-05 3.09906e-05
95 1 0.944047 2.14045 3.34489 -4.29242e-05 -2.19358e-05 6.79935e-06 4.86816e-05
96 1 2.21638 3.20637 1.52529 -2.56175e-05 1.37664e-05 -6.49068e-05 7.11242e-05
97 1 10.9606 1.63748 7.60437 4.83249e-05 -3.93997e-05 -4.85219e-05 7.90063e-05
98 1 2.32196 1.10427 4.99949 5.8554e-06 5.39701e-05 -6.54966e-05 8.50697e-05
99 1 2.3502 0.370561 2.37303 -2.44822e-05 4.7913e-06 6.97344e-05 7.40623e-05
100 1 2.20266 6.69082 3.6436 3.60887e-05 3.63815e-05 -1.6717e-06 5.12719e-05
101 1 6.62729 4.73431 2.61443 6.24263e-05 1.30487e-05 -9.17765e-06 6.44325e-05
102 1 3.51787 2.35299 3.31504 -2.10997e-06 -1.63242e-05 1.17485e-05 2.02227e-05
103 1 3.54601 3.03061 6.0097 -1.45998e-05 -9.52263e-06 -4.32551e-05 4.66351e-05
104 1 8.03643 2.38519 10.3212 -1.09748e-05 -1.28864e-05 4.05586e-05 4.39489e-05
105 1 6.55698 2.86021 5.98251 1.94294e-06 -1.52185e-05 -1.63979e-05 2.24559e-05
106 1 8.11497 3.72604 4.29454 4.82744e-05 -1.08853e-06 4.51685e-05 6.61196e-05
107 1 4.91415 3.25348 1.54258 1.30671e-05 6.49275e-05 -6.01447e-05 8.94635e-05
108 1 8.07468 3.04035 1.61211 2.76897e-05 2.74531e-05 -4.41434e-06 3.92413e-05
109 1 3.83074 0.587377 9.40069 -5.02814e-05 4.10768e-05 1.89516e-05 6.76365e-05
110 1 4.98961 1.92485 7.65026 -2.16719e-05 -3.32829e-05 1.76069e-06 3.97558e-05
111 1 3.75067 0.0441691 6.5798 5.75124e-06 7.9827e-06 1.82359e-05 2.07207e-05
112 1 6.45114 2.26462 3.23836 -2.04354e-05 -5.70953e-05 -4.90202e-06 6.08401e-05
113 1 6.29987 1.49998 0.571336 1.10876e-05 -2.02788e-05 -1.12376e-05 2.56992e-05
114 1 3.74886 11.0841 4.03227 3.17012e-05 -2.48768e-05 -4.20429e-05 5.8236e-05
115 1 2.45635 9.90358 5.68682 4.11653e-05 -8.13605e-05 1.16895e-05 9.1928e-05
116 1 2.45684 9.32534 2.95488 1.10963e-05 -2.48133e-05 2.78647e-05 3.89265e-05
117 1 3.7978 10.4872 1.20452 -7.60578e-06 -1.7673e-05 -5.00633e-05 5.36331e-05
118 1 5.05839 3.92806 4.31062 2.5879e-05 -1.61941e-06 2.50341e-05 3.60423e-05
119 1 3.90572 9.76655 9.98773 2.84324e-05 -2.47361e-05 4.03006e-05 5.51762e-05
120 1 10.7417 10.1186 5.57675 -2.75742e-05 2.82114e-05 -1.14692e-05 4.10824e-05
121 1 3.87017 8.21611 4.60808 -1.45866e-05 -3.82828e-05 1.36908e-05 4.31946e-05
122 1 5.22218 8.58327 0.360164 3.39087e-05 -1.7053e-06 -1.9807e-05 3.93068e-05
123 1 3.73797 6.92561 10.5822 9.08341e-07 1.75233e-05 -2.93294e-05 3.41775e-05
124 1 3.77615 6.32588 7.93485 2.51747e-05 -2.37052e-05 2.38976e-05 4.20333e-05
125 1 5.33391 7.17395 6.25389 2.3697e-05 2.21182e-05 -1.68111e-05 3.65154e-05
126 1 5.23944 6.45247 3.62569 5.4369e-06 -1.48682e-05 -7.96639e-06 1.77225e-05
127 1 6.64156 7.53699 1.97633 -8.73719e-07 -1.4226e-05 -3.43294e-05 3.71706e-05
128 1 5.2001 5.24112 9.59952 -3.62582e-05 3.1714e-05 3.92539e-05 6.21394e-05
129 1 5.19085 4.58788 6.98766 1.24588e-06 -1.97122e-05 2.89999e-05 3.50873e-05
130 1 6.71214 5.42298 5.29327 3.12728e-05 -6.57157e-05 2.70161e-05 7.763e-05
131 1 3.55038 4.96038 2.61472 -2.89681e-05 -1.07154e-05 2.65503e-05 4.07295e-05
132 1 8.13903 5.77771 1.03461 2.39287e-05 5.03269e-05 2.15801e-05 5.97585e-05
133 1 6.60563 3.49872 8.66285 -6.0353e-06 3.11147e-05 -1.49838e-06 3.173e-05
134 1 2.33375 8.04152 8.9261 -2.87578e-05 -4.52994e-06 3.45733e-07 2.91145e-05
135 1 0.785273 7.79401 1.95991 -3.0525e-05 -4.3922e-06 -2.36863e-06 3.09302e-05
