ITEM: TIMESTEP
0
ITEM: NUMBER OF ATOMS
138
ITEM: BOX BOUNDS pp pp pp
0.0000000000000000e+00 1.1464695000000001e+01
0.0000000000000000e+00 1.1317634999999999e+01
0.0000000000000000e+00 1.1648808000000001e+01
ITEM: ATOMS id type x y z fx fy fz v_fmag
1 1 0.15914 0.734593 4.20368 -2.34648e-05 -4.64747e-06 1.28458e-05 2.71516e-05
2 1 5.80976 6.92619 5.21646 2.73254e-06 -1.04199e-05 -3.5366e-05 3.69702e-05
3 1 6.70185 8.0909 3.21857 -2.68713e-06 1.421e-05 -8.33955e-05 8.46401e-05
4 1 5.50815 6.97928 1.48967 -3.12835e-06 6.96872e-05 1.542e-05 7.14414e-05
5 1 7.0142 9.40533 1.27249 -0.000142215 4.23038e-05 6.73164e-05 0.00016293
6 1 9.00334 6.22059 10.7622 -4.27196e-05 -5.94281e-06 -2.76201e-05 5.12167e-05
7 1 6.45325 4.94608 8.9939 -3.54494e-05 -1.62599e-05 -4.38854e-06 3.92467e-05
8 1 7.37584 6.06262 6.89611 2.18993e-05 3.23057e-05 -1.97322e-05 4.37333e-05
9 1 6.04492 4.54536 5.50757 -4.18467e-05 -3.70275e-06 2.22296e-05 4.75291e-05
10 1 6.93757 5.67513 3.28848 2.21384e-05 1.07519e-05 2.33905e-05 3.39533e-05
11 1 7.89972 4.93665 1.18098 5.07084e-05 2.09627e-05 -1.08432e-05 5.59317e-05
12 1 8.03497 4.02365 10.6465 1.00099e-05 1.10572e-05 2.57467e-05 2.97549e-05
13 1 6.65368 2.51393 9.29637 1.33448e-05 -4.64351e-07 4.15261e-06 1.39837e-05
14 1 7.58432 3.6525 7.23451 -1.32649e-07 -3.16132e-05 4.40033e-05 5.41821e-05
15 1 7.63008 2.5324 5.1523 -8.46665e-07 -1.02934e-05 4.82883e-05 4.93805e-05
16 1 8.40063 8.25239 7.04036 7.5758e-05 -2.17327e-05 2.25431e-05 8.19743e-05
17 1 8.62489 3.59812 2.98874 -2.65831e-05 1.71349e-05 -3.05395e-05 4.39651e-05
18 1 8.20243 1.65196 10.898 -3.1625e-06 1.58546e-05 -3.24938e-05 3.62935e-05
19 1 8.25521 0.457871 8.86025 -8.65628e-06 -1.39343e-06 1.35973e-05 1.6179e-05
20 1 9.17455 1.59844 6.77978 3.78981e-05 3.34581e-05 -2.64337e-05 5.70478e-05
21 1 6.66602 0.268756 5.09136 1.37189e-05 -2.37482e-05 1.19175e-05 2.99034e-05
22 1 7.55946 1.41342 3.09275 -5.51245e-05 -1.68303e-05 1.49633e-05 5.95472e-05
23 1 5.76556 0.239131 9.26367 1.33124e-05 4.46482e-05 -4.26938e-06 4.67858e-05
24 1 4.75801 9.32575 9.24263 -2.12976e-05 -2.19084e-06 -2.83006e-05 3.54868e-05
25 1 5.70839 10.4502 7.13316 -3.2267e-05 -1.79134e-05 -2.02316e-05 4.20876e-05
26 1 4.36651 8.9109 5.78696 6.21513e-06 1.2333e-05 -5.07236e-05 5.25701e-05
27 1 5.31037 10.0934 3.73754 -2.41816e-06 -3.22264e-05 2.32019e-05 3.97833e-05
28 1 3.65043 11.2164 2.0525 -3.78509e-05 -1.62306e-05 4.32884e-05 5.97496e-05
29 1 6.28753 8.40124 10.9473 -1.48744e-05 7.94353e-06 2.68354e-05 3.16937e-05
30 1 4.96633 6.91386 9.53424 -2.13311e-05 -1.98612e-06 8.43059e-06 2.30225e-05
31 1 5.9109 8.02336 7.44808 1.52718e-06 1.76722e-06 6.50634e-06 6.91287e-06
32 1 7.02246 2.71341 1.16899 4.7967e-06 4.65557e-05 7.76016e-06 4.74412e-05
33 1 7.44823 7.13546 9.11534 2.71836e-05 5.12115e-06 7.03126e-05 7.55582e-05
34 1 8.7795 8.63061 10.484 1.48303e-05 3.01342e-05 3.38872e-05 4.77111e-05
35 1 6.09737 0.198597 1.63817 7.50997e-06 -4.44635e-06 3.90141e-05 3.99784e-05
36 1 10.7241 0.686267 8.45091 -9.85665e-06 -2.39115e-06 1.56933e-05 1.86855e-05
37 1 9.32954 9.38141 4.95858 3.58154e-06 -5.5982e-05 -4.89968e-06 5.631e-05
38 1 10.2609 10.5613 2.80223 -9.67548e-06 -3.66822e-05 -1.85061e-05 4.22099e-05
39 1 9.27199 9.58928 0.88137 0.000163902 4.90078e-05 -3.01251e-05 0.000173704
40 1 11.2663 8.87212 10.0786 2.43244e-05 1.72875e-05 2.4561e-05 3.86494e-05
41 1 9.94306 7.35849 8.69074 4.85206e-06 1.55488e-06 -3.85499e-05 3.88852e-05
42 1 10.8757 8.48538 6.62463 1.53402e-05 -2.3143e-06 2.57092e-05 3.00274e-05
43 1 8.28262 7.14998 4.81427 -1.10964e-05 -1.9833e-05 2.0413e-05 3.05478e-05
44 1 9.15824 8.29825 2.83426 6.61874e-05 2.37623e-06 1.67905e-05 6.83252e-05
45 1 7.98064 7.28001 1.04492 -1.45812e-05 -3.07137e-05 -4.17033e-06 3.4254e-05
46 1 10.4336 7.54561 0.608776 1.30328e-05 5.43554e-05 1.75903e-05 5.85985e-05
47 1 0.016894 6.45292 10.3404 2.72122e-06 -2.74621e-05 -3.93708e-05 4.80794e-05
48 1 8.93396 5.17473 8.56692 1.21678e-05 8.11386e-06 -1.27036e-06 1.46801e-05
49 1 9.85785 6.27784 6.47586 1.14206e-05 -1.4082e-05 3.0706e-05 3.56594e-05
50 1 8.51719 4.77457 5.07589 -1.21789e-05 7.43623e-06 4.62257e-05 4.83781e-05
51 1 9.45684 5.90749 2.87509 -5.35414e-07 -1.07464e-05 -2.47802e-06 1.10414e-05
52 1 10.4493 5.19962 0.765955 -7.50826e-06 4.31979e-05 -2.75374e-05 5.17759e-05
53 1 7.79721 10.3343 3.2754 -4.65123e-05 -2.02348e-05 3.13076e-06 5.08197e-05
54 1 6.85503 9.14244 5.38335 -1.7298e-05 3.94115e-05 -2.24635e-06 4.30991e-05
55 1 8.20035 10.6777 6.72253 -1.07425e-05 -3.00112e-05 -1.87086e-05 3.69606e-05
56 1 7.23672 9.55855 8.82446 -2.3039e-05 5.61968e-05 -1.26287e-05 6.20351e-05
57 1 7.33215 10.7168 10.9809 -1.17347e-06 3.16173e-05 -5.37042e-05 6.23312e-05
58 1 10.0907 1.65414 2.64464 -5.61463e-06 2.09818e-05 -6.01415e-05 6.39434e-05
59 1 3.34266 6.71063 5.64546 3.67437e-05 -2.425e-06 3.18479e-05 4.86854e-05
60 1 9.15495 0.498072 4.64753 -4.77338e-05 2.03738e-05 -2.59891e-05 5.80434e-05
61 1 8.62399 0.473677 1.2043 -2.11906e-05 9.45214e-06 5.7649e-06 2.39085e-05
62 1 9.5399 2.97557 0.731172 -1.80692e-05 2.16294e-05 7.82779e-05 8.31971e-05
63 1 10.1182 2.7575 4.71946 5.54189e-07 1.46612e-06 2.07062e-05 2.07654e-05
64 1 10.0709 3.87228 6.80793 -3.31984e-05 2.53967e-06 1.90146e-05 3.83423e-05
65 1 9.14167 2.74269 8.86194 -1.52077e-05 3.38548e-05 2.38613e-06 3.71903e-05
66 1 10.5034 4.25592 10.2279 -3.78827e-05 -1.21207e-05 1.56502e-05 4.27427e-05
67 1 10.675 1.88839 10.4903 -4.15326e-05 -1.18282e-05 -2.71184e-05 5.09928e-05
68 1 4.2387 7.84284 3.59707 5.41181e-05 2.16524e-05 -4.60163e-05 7.42636e-05
69 1 3.01973 6.50553 2.00337 -1.30932e-06 -1.12566e-05 1.98829e-05 2.28857e-05
70 1 4.75743 9.17973 1.66267 0.000184779 3.34701e-05 -1.10276e-05 0.00018811
71 1 2.39276 4.19309 2.11366 -3.03746e-05 -3.74691e-05 2.67324e-05 5.51468e-05
72 1 3.09653 3.57535 11.5557 -1.51644e-05 -7.65705e-05 -2.86794e-05 8.31596e-05
73 1 1.6789 2.07585 10.1733 -5.81458e-06 -2.0566e-05 8.10636e-06 2.28578e-05
74 1 2.63745 3.18629 8.07525 -2.05237e-06 1.24473e-05 1.95915e-06 1.27666e-05
75 1 2.65252 2.0722 5.97373 -2.49592e-05 -3.26457e-05 2.91815e-05 5.0401e-05
76 1 3.6258 3.13079 3.82197 5.08363e-06 3.0848e-05 1.35741e-05 3.40837e-05
77 1 1.77066 1.91137 1.93749 1.26011e-05 -2.16307e-06 -8.49065e-05 8.58637e-05
78 1 3.17134 1.15474 0.0985125 0.000115022 -3.72044e-05 -4.76245e-05 0.000129932
79 1 3.27943 0.0101753 9.6717 -6.67719e-07 -4.38291e-05 4.60959e-06 4.40758e-05
80 1 4.20253 1.15627 7.62889 -2.80666e-05 -1.63855e-05 -1.28402e-05 3.49441e-05
81 1 1.66243 11.1334 5.91273 1.47357e-05 -6.86343e-06 -3.27413e-06 1.65821e-05
82 1 2.60247 0.928863 3.91283 -4.23337e-05 -6.63168e-05 -1.47387e-05 8.00455e-05
83 1 2.42809 10.2341 0.153881 4.77695e-05 2.49567e-06 -5.6885e-06 4.81717e-05
84 1 0.745746 10.022 8.01407 3.50934e-05 -4.79186e-06 -2.04965e-05 4.0922e-05
85 1 10.6737 10.908 6.30563 3.97173e-05 3.17307e-05 3.70169e-05 6.28853e-05
86 1 0.089434 9.8839 0.525482 -6.17306e-05 -0.000129781 -8.37226e-06 0.000143958
87 1 1.39249 7.87549 0.164185 4.70584e-05 -4.36168e-05 5.20834e-05 8.26413e-05
88 1 1.71846 0.933974 8.0521 -2.68797e-05 1.04623e-06 -3.51798e-05 4.42858e-05
89 1 0.808783 11.1758 10.2211 -1.08461e-05 -9.22745e-06 7.61949e-06 1.61506e-05
90 1 11.3562 0.878038 0.817366 -0.000100773 1.1851e-05 -8.57598e-06 0.000101829
91 1 1.16103 2.92472 4.19597 -5.06148e-05 -1.94962e-05 -4.69117e-05 7.17124e-05
92 1 0.183338 1.8237 6.34879 4.7172e-05 -1.94453e-05 -2.08218e-05 5.51077e-05
93 1 0.173524 2.95682 8.45667 1.6018e-05 1.93577e-05 -8.97474e-06 2.66804e-05
94 1 2.00205 5.19781 4.24495 -4.627e-05 6.0295e-07 -6.08766e-06 4.66727e-05
95 1 0.593756 3.28298 0.314865 -2.46073e-05 6.38318e-06 3.55692e-05 4.37199e-05
96 1 10.9998 4.98036 4.62555 2.79863e-05 1.38918e-06 -4.66301e-06 2.84061e-05
97 1 11.4226 5.38324 8.14709 8.70296e-06 -3.92166e-07 -1.96733e-05 2.15159e-05
98 1 1.50245 5.51577 0.341187 -5.88858e-05 3.12975e-05 -7.02504e-06 6.70554e-05
99 1 0.12344 8.50716 2.42994 -6.3628e-06 5.44791e-05 -9.93642e-05 0.000113498
100 1 10.7614 7.37238 4.41888 -3.36249e-05 1.77106e-05 1.30821e-06 3.80265e-05
101 1 0.957305 7.58602 8.27773 -7.73834e-06 -3.33702e-05 3.50259e-05 4.89925e-05
102 1 11.2143 3.77508 2.52151 -7.51265e-05 3.19241e-05 -2.12554e-05 8.43501e-05
103 1 9.72582 9.79443 8.42736 4.9944e-05 -2.53695e-06 -9.21041e-06 5.08495e-05
104 1 1.08791 4.06975 6.34907 8.16506e-06 -1.81108e-05 1.5094e-05 2.49499e-05
105 1 1.50922 4.47154 9.83422 1.92418e-05 -6.33043e-06 -8.69681e-06 2.20444e-05
106 1 6.5156 5.99445 11.1782 5.61914e-06 1.51894e-05 3.51482e-05 3.87e-05
107 1 3.97682 4.71025 9.41966 6.13699e-06 1.7751e-05 8.91164e-06 2.07889e-05
108 1 4.89961 5.83331 7.31942 4.25807e-05 4.22938e-05 3.22283e-05 6.81215e-05
109 1 3.57713 4.30504 5.94233 1.81571e-05 9.14027e-06 -1.20125e-05 2.3612e-05
110 1 4.45022 5.41657 3.75899 7.27193e-06 -2.60419e-06 -2.86439e-05 2.96671e-05
111 1 5.26131 4.64495 1.62768 8.97962e-05 -1.94158e-05 3.80352e-06 9.195e-05
112 1 5.56445 3.79519 11.084 1.51168e-05 1.77014e-06 -3.81315e-05 4.10569e-05
113 1 4.16164 2.2875 9.73707 -1.46671e-05 -4.70311e-06 6.20008e-05 6.38853e-05
114 1 5.10934 3.42056 7.66563 1.42295e-05 1.76258e-06 -2.93055e-06 1.46346e-05
115 1 5.14215 2.30297 5.57898 4.62671e-05 2.51701e-05 7.78393e-05 9.39847e-05
116 1 6.10998 3.36119 3.41839 -1.03922e-05 -4.90005e-05 4.58476e-05 6.79048e-05
117 1 4.46668 2.40895 1.61072 1.74143e-06 1.50786e-05 3.17936e-05 3.52311e-05
118 1 5.70895 1.41123 11.329 -1.95925e-05 8.338e-06 -3.24269e-05 3.8793e-05
119 1 6.69475 1.37535 7.20972 1.31926e-05 -1.68733e-05 -9.23331e-06 2.33239e-05
120 1 4.15707 0.0371842 5.51651 -1.48142e-05 1.49425e-05 -2.4191e-06 2.118e-05
121 1 5.06811 1.16416 3.53289 -5.54225e-05 -8.1804e-06 -7.12694e-05 9.06526e-05
122 1 4.85637 10.4938 11.3688 3.60888e-06 -7.47145e-05 -5.19229e-05 9.10564e-05
123 1 4.01721 5.78085 11.5816 -7.22835e-05 2.31878e-05 5.72492e-06 7.61272e-05
124 1 2.48081 8.81074 2.03402 -7.73485e-07 9.39879e-06 1.10981e-06 9.49565e-06
125 1 0.505205 6.13061 2.47157 -3.72034e-06 -3.81183e-05 -6.17664e-05 7.26769e-05
126 1 1.76836 7.59482 4.0076 4.5843e-06 -2.27758e-05 7.32238e-06 2.43592e-05
127 1 0.86234 6.48845 6.06733 -1.08319e-05 1.72756e-05 2.97864e-05 3.60972e-05
128 1 3.42658 7.80177 7.86452 1.03789e-05 3.61899e-06 -3.69086e-05 3.85106e-05
129 1 2.42398 5.59916 7.73075 -4.63794e-06 -1.49323e-05 -3.73607e-05 4.05007e-05
130 1 2.49234 6.6834 9.9361 -1.80202e-05 -3.33606e-05 6.67071e-05 7.673e-05
131 1 1.23649 10.8435 2.41325 1.29187e-05 1.6685e-05 3.85713e-05 4.39662e-05
132 1 0.334027 9.62103 4.52869 8.32944e-05 6.02399e-05 2.3841e-06 0.000102823
133 1 2.81729 9.84436 4.13546 -3.66346e-06 -9.88303e-06 3.72429e-05 3.87057e-05
134 1 1.87545 8.69654 6.19897 1.69252e-05 4.29022e-05 -1.40858e-05 4.82231e-05
135 1 3.21904 10.2224 7.54701 -1.04382e-05 -3.59418e-05 -2.33293e-05 4.41024e-05
136 1 2.27859 9.10198 9.68227 -6.20943e-06 -9.87441e-06 -3.2589e-06 1.21112e-05
137 1 3.82244 8.16815 11.4016 2.47231e-05 4.60696e-06 1.17955e-05 2.77776e-05
138 1 9.81539 10.9604 10.6358 -2.78105e-05 2.4958e-06 1.48756e-06 2.79619e-05
