ITEM: TIMESTEP
0
ITEM: NUMBER OF ATOMS
110
ITEM: BOX BOUNDS pp pp pp
0.0000000000000000e+00 1.1464695000000001e+01
0.0000000000000000e+00 1.1317634999999999e+01
0.0000000000000000e+00 1.1648808000000001e+01
ITEM: ATOMS id type x y z fx fy fz v_fmag
1 1 1.91152 3.97592 7.61371 -2.81638e-05 -1.63167e-05 4.72051e-06 3.28895e-05
2 1 5.55575 3.32145 2.13518 1.97582e-05 -4.45253e-05 5.00205e-05 6.98208e-05
3 1 7.97998 0.959937 11.0325 -8.82872e-06 -2.26637e-05 -1.67441e-06 2.43802e-05
4 1 7.84209 11.0406 8.8525 1.8829e-05 -2.57606e-05 1.94303e-06 3.19674e-05
5 1 6.69646 1.71583 7.41446 3.80315e-05 5.84124e-07 2.83018e-05 4.74102e-05
6 1 6.32054 0.981868 4.96304 -3.47828e-05 -1.91898e-05 -1.14137e-05 4.13323e-05
7 1 7.59937 2.4773 3.17384 -0.000137798 2.52656e-05 -8.67709e-05 0.00016479
8 1 6.00468 0.68692 2.45564 5.03318e-05 2.58926e-05 1.85843e-05 5.95742e-05
9 1 5.72698 10.8577 0.110352 1.75255e-05 -9.42685e-06 -9.65294e-06 2.21176e-05
10 1 8.29273 8.54175 8.77484 -1.06058e-05 2.40164e-05 -1.13303e-05 2.85945e-05
11 1 5.92666 9.74678 7.33496 4.12862e-06 9.89662e-06 -5.14699e-06 1.18945e-05
12 1 6.99525 9.57714 2.07229 2.70844e-05 -7.19856e-06 -1.8917e-05 3.38117e-05
13 1 9.5785 7.68576 10.867 -2.51634e-05 1.3683e-05 -3.28876e-06 2.88312e-05
14 1 6.54818 6.88058 7.95348 1.1638e-05 -1.00719e-05 2.21851e-06 1.55502e-05
15 1 6.02429 9.81598 4.5157 3.43427e-05 -1.85454e-06 -1.13192e-05 3.62076e-05
16 1 5.36761 8.20196 0.47211 -1.35122e-05 -2.34118e-05 -1.68075e-05 3.18305e-05
17 1 5.25975 7.60589 5.64134 -2.26928e-05 -3.24587e-06 -1.39089e-05 2.68134e-05
18 1 5.33628 7.77594 3.01328 2.38979e-05 -1.76299e-05 4.78743e-06 3.00806e-05
19 1 4.65785 6.17291 10.4964 2.97707e-05 -7.12163e-06 1.03008e-06 3.0628e-05
20 1 4.80402 5.11469 5.78965 -3.51619e-05 1.05453e-06 2.83577e-05 4.51844e-05
21 1 6.42633 5.55335 1.05239 7.64282e-06 -2.56027e-05 2.12303e-05 3.41268e-05
22 1 8.16538 2.82294 9.2189 -3.34947e-05 1.72672e-05 5.6297e-06 3.81018e-05
23 1 8.84158 4.23309 6.93178 -2.69171e-05 7.09278e-06 -2.78747e-05 3.93933e-05
24 1 6.80183 3.4192 5.3971 -7.43788e-06 -1.45087e-05 5.44904e-05 5.68773e-05
25 1 8.37722 4.98098 2.7507 3.57542e-05 -1.91258e-05 -1.15247e-05 4.21542e-05
26 1 9.39696 3.29185 4.60919 6.87765e-05 0.000118185 4.28905e-05 0.000143309
27 1 11.3188 3.95562 6.17181 -3.44115e-05 3.13598e-05 -5.39043e-07 4.65605e-05
28 1 10.6178 3.78689 8.73352 -2.65346e-05 1.29365e-05 3.2728e-06 2.9701e-05
29 1 10.0722 7.08824 2.81508 -3.77216e-06 1.45896e-07 -2.74142e-05 2.76729e-05
30 1 10.7773 6.40959 9.1063 -1.4341e-05 -3.78999e-05 -1.02855e-05 4.18074e-05
31 1 9.8264 5.68481 4.89767 -4.00732e-05 -6.98749e-05 1.51961e-05 8.19712e-05
32 1 10.7041 4.83705 1.60189 4.63514e-05 1.28056e-05 -3.38769e-05 5.88224e-05
33 1 7.85629 3.17121 0.818832 3.08849e-05 -3.14029e-05 4.89587e-05 6.58557e-05
34 1 10.0158 2.96243 11.2302 -4.02175e-06 -6.50561e-06 -6.23897e-06 9.87027e-06
35 1 10.0745 1.145 9.32892 8.2426e-06 -1.61573e-05 2.55759e-05 3.13549e-05
36 1 9.29816 1.80247 6.84752 -7.07624e-06 2.31624e-05 9.22508e-06 2.59166e-05
37 1 9.01361 0.802521 4.32036 2.87413e-05 -1.59521e-05 1.76043e-05 3.72887e-05
38 1 10.1682 2.35367 2.24129 -1.62104e-05 1.80426e-06 1.78043e-05 2.41459e-05
39 1 8.46923 0.340794 1.8411 3.94568e-06 2.9103e-05 3.65705e-05 4.69037e-05
40 1 5.8975 5.33214 3.57056 3.33056e-05 -3.60201e-05 -1.08395e-05 5.02415e-05
41 1 7.89147 9.61371 11.2521 -3.90878e-06 -1.74006e-05 -2.55425e-05 3.11526e-05
42 1 7.93101 10.9244 6.28065 3.69929e-05 -1.12272e-05 -7.78628e-06 3.94354e-05
43 1 9.77583 9.36648 1.36238 -2.54853e-05 -2.88926e-05 2.10902e-05 4.39213e-05
44 1 9.21752 6.75217 7.1528 -3.4001e-05 1.29636e-05 -3.13841e-05 4.80529e-05
45 1 8.83607 9.67196 3.7759 -2.56187e-05 5.70864e-05 3.55376e-05 7.19589e-05
46 1 8.03849 7.44452 1.26069 -5.80748e-06 -3.25583e-05 -3.47199e-06 3.32539e-05
47 1 7.71487 8.4302 6.06568 -2.10053e-05 8.48671e-06 1.89658e-05 2.95457e-05
48 1 7.71022 7.37428 3.76567 8.16389e-05 -4.11437e-07 1.79248e-05 8.35845e-05
49 1 6.57754 4.39073 10.5217 -4.67314e-06 2.55475e-05 2.2392e-05 3.42916e-05
50 1 8.45682 5.43539 9.15124 -2.40857e-05 -1.26108e-05 3.20561e-05 4.20327e-05
51 1 7.2928 5.86364 5.70813 -1.93862e-05 2.21231e-05 -1.99717e-05 3.55545e-05
52 1 8.88795 5.34459 11.6217 -1.01855e-05 -6.12059e-06 -2.57037e-05 2.83176e-05
53 1 10.8242 8.65523 7.87537 -6.43094e-06 1.17454e-05 -1.36738e-05 1.91385e-05
54 1 4.13532 4.00491 0.211341 2.23019e-05 2.35748e-05 -3.24191e-06 3.26137e-05
55 1 5.7403 2.04228 11.5991 -2.77103e-05 -5.04833e-05 -1.42056e-05 5.93146e-05
56 1 3.60176 10.3887 8.90673 2.45001e-06 -1.95937e-05 -5.11286e-06 2.03974e-05
57 1 10.3682 0.478068 0.191586 1.27954e-05 1.92246e-05 -4.67403e-06 2.35617e-05
58 1 0.630486 9.8687 0.511777 -8.77453e-06 7.29289e-07 -2.73666e-05 2.87481e-05
59 1 1.89958 8.66001 8.11832 1.20744e-05 2.95861e-05 -3.46547e-05 4.71389e-05
60 1 1.17145 8.63646 5.73169 1.4117e-05 -9.94709e-06 -3.94769e-05 4.3089e-05
61 1 2.13909 10.72 2.36551 -1.42074e-05 3.45909e-06 3.34164e-05 3.64756e-05
62 1 3.24241 8.3277 10.4701 -2.11403e-05 9.60113e-06 -6.10869e-06 2.40085e-05
63 1 1.91596 6.30422 8.9222 -1.8613e-05 -1.08387e-05 1.21104e-05 2.471e-05
64 1 3.02517 8.80321 3.92126 3.55477e-05 -2.48674e-05 -2.94173e-06 4.34819e-05
65 1 0.0459265 7.29306 0.788502 7.65603e-06 -2.03945e-05 -9.91285e-06 2.39336e-05
66 1 0.302779 6.38984 6.84108 -4.73985e-07 2.92146e-05 -2.72531e-05 3.99556e-05
67 1 0.802389 6.4844 4.41833 3.90879e-05 -7.15226e-06 3.24513e-05 5.1304e-05
68 1 1.23947 1.07577 0.750402 -1.00634e-05 3.24305e-05 1.00742e-06 3.3971e-05
69 1 0.13412 4.93513 10.8716 3.21526e-06 -7.06548e-08 -3.55163e-05 3.56616e-05
70 1 2.52701 4.06768 10.0047 1.75882e-05 -1.26643e-05 -2.49334e-05 3.30364e-05
71 1 4.12708 5.25491 8.2066 2.47178e-06 6.23871e-06 2.90588e-06 7.31268e-06
72 1 2.34758 1.81113 5.81375 -4.83806e-06 1.27893e-06 3.94438e-07 5.01977e-06
73 1 0.355144 3.97283 3.64335 -2.05579e-06 1.45055e-06 -3.21938e-06 4.08593e-06
74 1 0.776123 2.28505 10.1475 1.6922e-05 2.29005e-05 1.31218e-05 3.13524e-05
75 1 0.382323 1.83605 7.56459 4.28359e-05 1.62031e-06 -7.37363e-06 4.34961e-05
76 1 11.3368 1.68883 4.93335 -9.98612e-06 2.87706e-06 3.7381e-07 1.0399e-05
77 1 1.39151 10.9205 4.69932 8.76698e-06 1.15308e-06 -1.81838e-05 2.02198e-05
78 1 11.0635 11.29 2.71817 2.70693e-05 -1.28961e-05 1.18393e-05 3.2237e-05
79 1 0.664118 8.26316 10.2234 -6.36766e-06 2.77758e-05 8.91734e-06 2.98591e-05
80 1 0.507291 8.79004 3.05323 2.43914e-05 -7.90644e-06 -1.25383e-05 2.85423e-05
81 1 1.55229 5.8735 2.17863 6.20103e-06 5.38775e-05 2.08564e-05 5.81053e-05
82 1 10.2291 8.11969 5.21228 -1.51343e-06 3.02192e-05 -1.60369e-05 3.42443e-05
83 1 1.76617 1.8451 3.25059 -1.64623e-06 -1.30965e-05 2.21559e-05 2.57898e-05
84 1 2.8036 1.63915 8.4633 -3.20153e-05 2.33561e-06 4.48542e-05 5.51574e-05
85 1 5.50619 0.594234 9.39944 2.43211e-05 1.08392e-05 2.1751e-05 3.43818e-05
86 1 4.45388 0.463684 6.79138 1.09949e-05 -2.09099e-05 -1.84482e-05 2.99741e-05
87 1 4.45753 2.64953 4.36952 -8.13934e-06 1.95526e-05 1.8345e-05 2.80195e-05
88 1 3.73618 1.45096 1.72247 1.78566e-06 -1.70341e-05 9.9628e-06 1.98143e-05
89 1 3.1462 10.5652 11.6337 -1.31709e-05 -3.32385e-06 1.28286e-05 1.8684e-05
90 1 5.81382 9.1927 9.77078 -1.61324e-05 -3.09832e-05 -3.90646e-05 5.24047e-05
91 1 3.58589 9.4713 6.26079 1.07398e-05 3.37269e-05 1.41388e-05 3.8115e-05
92 1 4.48749 10.0053 2.16895 1.15546e-05 -6.41491e-05 -4.34851e-06 6.53263e-05
93 1 7.07107 7.05387 10.5494 1.27702e-05 -2.12423e-05 6.06874e-06 2.55175e-05
94 1 4.27163 7.83779 8.19421 -5.46579e-05 3.06931e-05 -2.30495e-05 6.67895e-05
95 1 3.87174 0.13042 4.24093 5.34904e-06 -8.05288e-06 4.2488e-05 4.3574e-05
96 1 1.74854 11.001 7.20578 3.02972e-06 9.21029e-06 1.43162e-05 1.72906e-05
97 1 2.57779 8.27631 1.38393 2.14674e-05 3.69143e-06 -3.43709e-05 4.0692e-05
98 1 3.43056 6.30746 3.96075 -1.69613e-05 -1.41143e-06 -1.47143e-05 2.24987e-05
99 1 2.23279 6.17857 11.4369 1.63457e-06 -3.6222e-06 -4.35675e-06 5.8969e-06
100 1 2.37696 4.30965 5.16926 -7.32661e-06 -9.76319e-06 -2.59265e-05 2.86563e-05
101 1 4.06968 6.16133 1.52126 1.70399e-07 -2.57647e-05 -2.92683e-06 2.5931e-05
102 1 4.82268 3.04301 9.38325 2.23485e-06 -3.2898e-05 4.07979e-06 3.32252e-05
103 1 6.46473 4.31849 7.82126 2.19931e-05 6.41002e-06 8.65771e-06 2.44896e-05
104 1 4.37822 2.96943 6.89999 -2.23397e-05 4.65503e-05 -1.92864e-05 5.51177e-05
105 1 3.16484 4.00457 2.71924 -1.32286e-05 2.04885e-05 1.96268e-05 3.13047e-05
106 1 1.55167 3.57014 0.828948 1.01822e-07 2.22275e-05 -2.82808e-05 3.59705e-05
107 1 3.24938 1.66687 10.9018 2.24808e-06 1.52557e-05 -1.84884e-05 2.40751e-05
108 1 1.20981 11.0625 9.87032 -1.39315e-05 3.03696e-05 -3.28651e-07 3.34142e-05
109 1 2.79906 6.72675 6.40064 -1.52509e-05 -1.34451e-05 -6.39578e-06 2.13135e-05
110 1 10.1759 10.0063 10.0859 -3.13698e-05 -7.57116e-06 1.6048e-05 3.60406e-05
