ITEM: TIMESTEP
0
ITEM: NUMBER OF ATOMS
128
ITEM: BOX BOUNDS pp pp pp
0.0000000000000000e+00 1.1400361000000000e+01
0.0000000000000000e+00 1.2098903999999999e+01
0.0000000000000000e+00 1.2816801000000000e+01
ITEM: ATOMS id type x y z fx fy fz v_fmag
1 1 2.33716 1.25566 0.0448312 2.44724e-05 -1.16704e-05 -1.39657e-05 3.04981e-05
2 1 8.88211 8.46382 10.2478 -9.13494e-07 3.82841e-05 -4.7796e-06 3.85921e-05
3 1 7.48404 5.99589 7.63466 -1.49169e-05 3.63112e-05 -1.44287e-05 4.18235e-05
4 1 0.24846 7.96955 6.24166 6.82098e-05 -2.10268e-05 -6.64363e-05 9.75114e-05
5 1 8.13701 6.25445 3.86813 -1.04186e-05 1.12864e-06 7.97864e-06 1.31712e-05
6 1 9.15056 7.54359 1.83635 -5.48632e-06 4.96179e-06 3.6905e-06 8.26673e-06
7 1 6.29324 2.16991 11.6173 1.51807e-05 1.28174e-05 -3.52189e-06 2.01778e-05
8 1 8.20098 5.90871 10.0681 -2.92085e-05 2.72656e-05 -2.59606e-06 4.0041e-05
9 1 7.2436 3.51866 7.48414 1.98531e-05 -3.8662e-05 -4.91862e-06 4.37389e-05
10 1 8.93685 4.66153 5.8118 9.46618e-06 2.23624e-06 3.75907e-06 1.04278e-05
11 1 7.76876 3.64967 3.53099 -1.55497e-05 -1.468e-05 7.8418e-07 2.13988e-05
12 1 9.59262 4.97247 1.98841 -2.00814e-05 -2.21044e-05 1.97523e-06 2.99294e-05
13 1 7.52609 2.91306 1.02571 2.23975e-06 3.93918e-05 -1.52123e-05 4.22865e-05
14 1 7.51201 0.69069 9.81926 -7.86663e-06 1.52003e-05 -3.14691e-06 1.74021e-05
15 1 8.28783 6.79515 12.4175 -1.99989e-05 8.75692e-06 -2.31124e-05 3.17934e-05
16 1 7.92225 3.32479 10.0515 -3.51016e-05 2.48398e-05 5.35502e-06 4.33338e-05
17 1 8.58943 2.17398 5.69779 -4.76757e-05 2.77472e-06 -2.09424e-05 5.21465e-05
18 1 7.50635 12.0725 4.97628 -8.1748e-06 -5.23124e-05 1.60998e-05 5.53409e-05
19 1 8.3821 1.15343 2.80137 4.81988e-06 -2.04747e-05 3.7714e-06 2.13698e-05
20 1 10.1554 0.408037 10.2367 -7.64492e-06 4.89247e-05 3.10381e-05 5.84417e-05
21 1 9.70445 11.8074 0.85066 1.12123e-05 3.42573e-06 -2.10964e-05 2.41352e-05
22 1 5.84425 11.6415 11.3576 2.63636e-06 -5.07216e-05 1.09172e-06 5.08018e-05
23 1 5.08805 11.9107 8.86687 4.23236e-06 -1.85672e-05 2.24589e-06 1.91754e-05
24 1 6.82839 10.7245 7.21063 2.3923e-06 2.51985e-05 -1.47008e-05 2.92712e-05
25 1 6.55307 11.1675 2.8117 5.66486e-05 3.60078e-06 2.72535e-05 6.29665e-05
26 1 4.5631 9.36961 10.9707 1.01939e-05 1.67656e-05 -2.64147e-05 3.2905e-05
27 1 8.81719 10.7917 9.00638 6.88129e-05 -3.34602e-05 -9.40774e-05 0.000121266
28 1 7.73784 8.44368 7.94019 1.10713e-05 -1.54939e-05 1.1523e-06 1.90778e-05
29 1 8.39231 9.6284 5.56824 -9.00465e-06 -8.31486e-06 2.00329e-05 2.34849e-05
30 1 6.9279 1.05108 7.30583 1.46771e-05 2.32569e-05 2.23033e-05 3.54082e-05
31 1 7.39735 8.68115 3.37864 8.01708e-06 -3.49243e-05 -3.24932e-06 3.59797e-05
32 1 10.9552 9.56303 1.98985 -1.93333e-05 -9.47855e-06 4.32871e-06 2.19626e-05
33 1 10.8865 10.4072 5.32353 1.02377e-05 -3.80949e-06 -4.11236e-06 1.16719e-05
34 1 0.607554 10.8928 12.7139 4.81708e-05 8.35489e-06 2.26465e-05 5.38804e-05
35 1 1.72494 6.56203 4.79086 -4.58874e-05 3.12476e-05 -1.72617e-06 5.55432e-05
36 1 11.3158 1.30089 12.2364 -5.18585e-06 -2.25741e-06 -5.8449e-05 5.8722e-05
37 1 9.92386 8.92252 12.566 9.53702e-06 7.87288e-06 1.51358e-05 1.95455e-05
38 1 10.7905 6.39447 0.10811 -1.75936e-05 -1.25919e-06 1.71611e-05 2.46095e-05
39 1 0.0695018 7.68912 10.7867 -1.66478e-05 -1.91513e-05 5.07311e-05 5.67236e-05
40 1 10.0705 7.00379 8.51732 -2.8858e-05 -9.85701e-06 1.87188e-05 3.57818e-05
41 1 10.6518 5.84168 4.28339 -1.02987e-06 -6.31403e-06 1.21545e-05 1.37354e-05
42 1 0.40476 7.1235 2.42008 -1.99635e-05 -1.90974e-05 1.65623e-05 3.22112e-05
43 1 9.03457 4.30227 12.2743 9.28947e-06 -1.74445e-07 -1.43937e-05 1.71319e-05
44 1 10.6664 5.38294 10.5082 2.76351e-05 4.28797e-05 1.5946e-05 5.34476e-05
45 1 9.57876 4.4281 8.35971 -1.31098e-05 2.23367e-05 -5.66179e-06 2.65114e-05
46 1 11.2741 5.50835 6.72467 4.50402e-06 3.20304e-05 -1.81888e-06 3.23966e-05
47 1 10.0578 8.33237 4.0541 -9.45128e-07 -2.56403e-05 -8.01253e-08 2.56578e-05
48 1 10.1931 3.25881 3.98522 -7.18861e-07 -2.13906e-05 -1.78551e-05 2.78725e-05
49 1 8.76956 1.62531 11.9694 7.3601e-07 -8.48153e-06 -2.51847e-05 2.65848e-05
50 1 10.439 2.93203 10.4417 -6.22371e-06 -3.65446e-05 6.97655e-06 3.77215e-05
51 1 9.27119 1.84431 8.27626 -6.2204e-06 3.95663e-05 -7.22497e-06 4.06987e-05
52 1 10.8574 2.9959 6.58615 -1.11382e-05 -5.41714e-07 -4.10764e-06 1.18838e-05
53 1 10.1065 0.63194 4.51112 2.69928e-05 -8.67067e-06 2.65015e-05 3.88087e-05
54 1 9.96078 2.50311 1.27545 3.42768e-05 2.37749e-06 -1.82366e-05 3.88989e-05
55 1 0.0499044 11.2702 8.37436 -1.38338e-05 -8.57311e-05 1.28664e-05 8.77881e-05
56 1 8.43804 10.9589 11.5614 7.70215e-06 7.06497e-06 4.04719e-06 1.12079e-05
57 1 9.29263 11.8539 6.79051 1.10218e-06 -2.31502e-05 3.89719e-05 4.53427e-05
58 1 9.06306 10.7081 3.32181 6.51129e-06 -2.73766e-05 3.2038e-05 4.26416e-05
59 1 6.9304 8.86432 11.8118 1.92469e-05 1.20704e-05 -2.9614e-05 3.73246e-05
60 1 10.8706 10.1308 10.5514 2.32457e-05 2.24236e-05 8.76677e-06 3.34669e-05
61 1 10.0553 9.34641 7.49257 -2.51196e-05 8.43848e-05 9.92487e-05 0.000132673
62 1 0.162304 3.96565 12.5874 7.62358e-06 2.17027e-05 -7.25498e-06 2.41198e-05
63 1 8.02454 9.83271 1.13856 -1.79585e-05 1.23655e-05 -9.76536e-07 2.18258e-05
64 1 6.53046 4.86366 11.8728 5.20524e-06 5.99338e-06 -1.0814e-05 1.34149e-05
65 1 6.04123 7.3979 9.74273 -3.686e-05 4.99674e-06 1.81133e-06 3.72413e-05
66 1 3.40636 5.12717 9.16232 -1.37404e-05 -7.16851e-06 -3.18755e-06 1.58224e-05
67 1 1.98045 2.59554 6.74231 -3.27369e-06 6.43135e-06 2.92348e-06 7.78627e-06
68 1 3.99362 5.48944 4.99733 -2.76242e-06 1.48442e-05 -3.97858e-05 4.25546e-05
69 1 3.54713 2.30059 2.28311 3.00801e-05 -1.51237e-05 1.6646e-05 3.75583e-05
70 1 5.14868 3.5025 0.72021 3.95987e-05 -1.55158e-05 6.38888e-06 4.30071e-05
71 1 1.65104 2.72507 10.8919 9.23611e-06 3.13645e-05 -2.34036e-05 4.02091e-05
72 1 3.12874 2.62922 8.88096 -2.66837e-05 -1.41962e-05 -2.22769e-05 3.75475e-05
73 1 2.46858 0.265269 8.05412 3.09711e-05 -1.15798e-05 -3.60552e-06 3.32611e-05
74 1 3.64752 2.92485 4.81643 -3.4458e-05 8.75362e-06 1.82452e-06 3.55993e-05
75 1 2.61274 0.469111 5.41297 -6.02946e-06 1.30501e-05 2.27132e-05 2.68802e-05
76 1 4.78962 0.986133 0.381019 -1.94133e-05 6.90105e-06 7.77472e-06 2.20215e-05
77 1 1.47087 12.0204 10.5266 4.21629e-05 2.30233e-06 2.84793e-06 4.23216e-05
78 1 1.73431 10.2542 6.55153 1.50756e-05 -2.31385e-05 5.26696e-05 5.94706e-05
79 1 1.77763 5.38586 11.0716 -8.56887e-06 3.81959e-05 -1.32976e-06 3.91679e-05
80 1 2.39436 9.78385 1.8715 1.83208e-05 2.35376e-05 -2.90666e-05 4.16478e-05
81 1 2.66224 7.82682 7.10011 -2.63935e-05 -5.0234e-06 2.26914e-06 2.69629e-05
82 1 3.31548 10.345 4.35044 8.86667e-06 -7.67025e-06 1.40369e-05 1.82889e-05
83 1 3.03346 7.40363 2.76276 -9.8967e-06 7.90415e-06 -5.40537e-07 1.26772e-05
84 1 3.776 8.27209 0.339449 -1.95883e-05 9.61187e-06 6.35851e-06 2.27271e-05
85 1 1.17706 6.49544 8.76414 1.01073e-05 -4.26091e-05 -1.44718e-05 4.61208e-05
86 1 4.09912 8.05679 5.09622 -8.1431e-06 -4.23547e-05 1.36199e-05 4.52298e-05
87 1 1.04189 8.40086 0.256059 4.07949e-05 -2.01412e-05 1.89804e-05 4.92966e-05
88 1 0.841844 4.07131 8.77002 -7.66481e-06 7.31719e-06 -4.5484e-05 4.6702e-05
89 1 1.1741 4.10562 4.86601 -8.7445e-06 1.06703e-05 2.43009e-06 1.40081e-05
90 1 2.07977 6.19498 0.640694 -4.34296e-05 -2.23261e-05 6.73253e-06 4.92942e-05
91 1 0.47725 1.64549 8.76458 1.73033e-05 6.36242e-05 5.30632e-05 8.46354e-05
92 1 0.327298 0.596826 6.41611 -6.69975e-06 1.77685e-05 -1.21716e-05 2.25556e-05
93 1 2.71982 3.81548 0.259359 3.1545e-05 -1.33733e-05 7.41062e-06 3.50549e-05
94 1 3.1756 10.103 8.85816 -8.57863e-06 -8.83056e-06 3.69568e-06 1.28542e-05
95 1 4.55303 5.88783 1.23149 -4.37423e-05 1.63678e-05 -1.92569e-05 5.05186e-05
96 1 2.79411 4.82278 2.82732 -3.30654e-05 -5.92293e-07 -2.32419e-05 4.0421e-05
97 1 6.60794 7.61458 5.72065 -1.18462e-05 -3.34051e-05 -8.17209e-07 3.54527e-05
98 1 4.87212 6.38596 7.36686 -4.45534e-06 -8.79458e-07 -7.3374e-06 8.62908e-06
99 1 9.17778 7.18145 6.10937 8.44698e-06 -2.83475e-05 8.97504e-06 3.09109e-05
100 1 5.61531 6.7293 3.43823 5.62601e-06 -3.40163e-07 -4.06978e-06 6.95204e-06
101 1 6.35671 7.77155 1.16244 6.74291e-06 1.4126e-05 -9.39819e-06 1.82575e-05
102 1 4.22731 3.61274 11.0568 2.38018e-06 -1.42541e-05 -9.57517e-06 1.73357e-05
103 1 5.8946 4.85864 9.34782 -1.42352e-05 1.66547e-05 -5.56543e-06 2.26052e-05
104 1 4.67034 3.89505 7.08643 7.7637e-06 4.27157e-06 7.09325e-06 1.13506e-05
105 1 6.42668 5.04586 5.44304 -2.15395e-05 -9.28993e-06 -2.33165e-05 3.30743e-05
106 1 5.29147 4.153 3.18888 -3.19484e-05 -2.19995e-05 -1.35826e-05 4.10994e-05
107 1 7.10182 5.3741 1.60158 -8.22546e-06 -1.7239e-05 1.5926e-05 2.48692e-05
108 1 3.81621 1.02913 10.7554 6.42813e-06 2.85524e-05 3.05677e-06 2.94263e-05
109 1 5.6095 2.33586 9.13884 8.26276e-06 4.77906e-06 -1.08448e-05 1.44472e-05
110 1 4.4384 1.42748 6.90425 2.98727e-05 1.80495e-05 -1.48611e-05 3.79344e-05
111 1 6.13756 2.5066 5.20613 5.36666e-06 -2.13439e-05 2.02177e-06 2.21009e-05
112 1 4.99898 0.297994 4.61175 1.39214e-05 -1.758e-05 -7.94902e-06 2.37918e-05
113 1 5.94178 1.66031 2.65823 5.36237e-05 2.5657e-05 -5.3474e-06 5.96857e-05
114 1 7.19957 0.269621 0.648966 -2.21854e-05 -7.39175e-06 4.49108e-06 2.38117e-05
115 1 3.27322 11.0254 12.4821 4.03287e-05 1.712e-05 -2.58411e-05 5.08651e-05
116 1 4.22515 10.9593 6.65637 -4.6925e-07 -3.27643e-06 -1.24071e-05 1.2841e-05
117 1 4.09538 11.6956 2.29611 2.18107e-05 -2.35518e-05 1.70614e-05 3.63523e-05
118 1 1.98085 9.41033 10.9837 1.79992e-06 -1.57953e-05 3.41389e-05 3.76589e-05
119 1 6.57563 9.96892 9.61036 -4.1048e-05 -2.97127e-06 2.57871e-05 4.85669e-05
120 1 5.11971 8.83486 7.70505 -1.70404e-05 -1.76322e-05 -1.73157e-05 3.00183e-05
121 1 5.84562 9.95792 4.98478 2.68964e-05 -1.2899e-06 5.51979e-06 2.74873e-05
122 1 4.8568 9.14314 2.73511 -1.31803e-05 -7.79971e-06 3.02193e-05 3.38786e-05
123 1 5.51155 10.2799 0.605152 2.03477e-05 -6.59088e-06 -1.09609e-05 2.40335e-05
124 1 4.29156 6.2022 11.4921 1.54328e-05 2.91032e-05 -2.97273e-05 4.43721e-05
125 1 3.36661 7.62906 9.53875 -6.60653e-05 -1.45809e-05 2.42924e-05 7.18842e-05
126 1 2.39289 5.15514 6.88875 -1.67513e-05 -2.20088e-06 1.63633e-05 2.35203e-05
127 1 1.24461 8.93233 4.06375 -2.26201e-05 -2.06999e-05 -1.40034e-05 3.37083e-05
128 1 0.89252 8.93703 8.66882 -4.11076e-06 5.96746e-05 1.03766e-05 6.07094e-05
