ITEM: TIMESTEP
0
ITEM: NUMBER OF ATOMS
145
ITEM: BOX BOUNDS pp pp pp
0.0000000000000000e+00 1.1400361000000000e+01
0.0000000000000000e+00 1.2098903999999999e+01
0.0000000000000000e+00 1.2816801000000000e+01
ITEM: ATOMS id type x y z fx fy fz v_fmag
1 1 0.804366 2.26857 0.75766 3.62111e-05 -2.25655e-05 -4.01532e-05 5.85895e-05
2 1 6.02265 0.745075 12.1501 -1.07677e-05 6.50662e-06 -3.597e-06 1.3085e-05
3 1 9.62407 3.7444 2.51811 -2.84137e-05 6.77246e-05 1.74239e-06 7.34643e-05
4 1 5.6533 3.00036 3.80468 -2.80366e-05 -1.61386e-05 6.74171e-06 3.30447e-05
5 1 7.84659 3.82401 6.59772 -1.59605e-05 -3.16292e-06 1.32407e-05 2.09775e-05
6 1 6.39234 2.86821 8.2963 1.0096e-05 -1.29755e-05 -1.19975e-05 2.03527e-05
7 1 8.71622 3.89584 11.1014 7.08494e-05 -8.94586e-05 -2.88231e-05 0.0001177
8 1 7.44607 1.73223 10.4537 2.31513e-05 -2.58073e-05 1.22302e-05 3.67638e-05
9 1 7.27625 2.88233 12.7088 1.21187e-06 4.14692e-05 4.05673e-05 5.80247e-05
10 1 6.87404 5.08243 4.35567 -2.43885e-05 4.21765e-05 1.16153e-05 5.00856e-05
11 1 9.04033 5.90934 7.22243 -1.18318e-05 -1.76984e-05 5.79774e-05 6.17624e-05
12 1 7.59426 4.95211 8.90559 8.69342e-05 4.4406e-05 -3.07682e-06 9.76673e-05
13 1 7.34812 6.00185 11.3441 0.000114733 5.78043e-06 5.17339e-05 0.00012599
14 1 9.64477 8.11064 3.08209 -6.14082e-06 4.11815e-05 -1.26597e-05 4.35188e-05
15 1 8.09738 7.14062 4.91384 -1.98643e-05 3.46716e-06 3.02542e-06 2.03904e-05
16 1 8.40553 6.07479 2.56252 -1.18178e-05 -4.78113e-06 -9.67814e-06 1.60058e-05
17 1 7.77366 8.22322 7.34673 -4.95828e-05 -8.70214e-06 2.75845e-05 5.74029e-05
18 1 5.17748 0.786969 7.71902 3.25037e-05 -1.15245e-05 -5.36388e-05 6.37686e-05
19 1 6.88626 0.622766 3.72301 -1.96396e-05 1.21591e-05 1.38288e-06 2.31402e-05
20 1 5.27027 8.47212 6.98202 -7.21393e-07 -4.12703e-06 6.22888e-06 7.50678e-06
21 1 3.80155 7.5011 8.71303 5.31088e-05 -2.24845e-05 1.68875e-05 6.0094e-05
22 1 6.02705 8.42497 11.3514 3.52345e-05 1.9458e-05 1.90083e-05 4.45129e-05
23 1 7.16915 7.16494 0.659597 2.27256e-05 1.94517e-05 -5.99714e-05 6.70178e-05
24 1 8.19541 10.4015 3.5122 -2.9318e-05 -2.98633e-05 2.69585e-06 4.1936e-05
25 1 4.22329 9.66421 4.88919 2.22542e-05 1.65837e-05 -7.33173e-07 2.77634e-05
26 1 6.64834 1.75221 5.98422 -1.38422e-05 9.94701e-06 2.94512e-05 3.40283e-05
27 1 6.45916 10.5659 7.55519 2.67664e-05 -3.05624e-05 -1.36993e-05 4.28739e-05
28 1 4.76058 10.7289 11.566 1.27456e-05 -3.27735e-05 2.94892e-05 4.5893e-05
29 1 5.87905 9.50712 0.850846 5.53435e-06 2.92931e-05 -8.67589e-06 3.10481e-05
30 1 7.92674 11.5141 5.84203 9.83129e-06 2.60785e-05 7.13308e-06 2.87684e-05
31 1 3.70782 11.9177 9.45827 8.32966e-06 3.66795e-06 1.77069e-05 1.99091e-05
32 1 7.10833 11.6061 1.4385 6.81206e-06 4.18447e-05 3.00441e-05 5.19618e-05
33 1 8.32384 1.62433 2.02405 -2.51339e-05 1.917e-05 2.31478e-05 3.91794e-05
34 1 4.98518 9.60761 9.27246 1.84693e-05 -3.65381e-05 4.87352e-05 6.36496e-05
35 1 6.31683 7.27065 9.06833 1.81887e-06 1.31607e-05 2.39369e-06 1.34997e-05
36 1 8.46378 8.21631 11.7488 -5.84088e-05 -5.90949e-05 1.32312e-05 8.4136e-05
37 1 9.61304 5.39036 0.286737 -0.000118534 6.48166e-05 -6.39896e-05 0.000149486
38 1 10.7695 5.71083 3.32622 -0.000111063 -6.03829e-05 0.000105202 0.000164464
39 1 9.28917 4.7842 4.92359 6.93359e-05 7.41381e-05 -4.14128e-05 0.000109631
40 1 10.0855 4.71778 9.35344 -2.18285e-05 3.34509e-06 -9.04059e-06 2.38623e-05
41 1 11.1415 6.73175 10.2196 2.12443e-05 2.59225e-06 -5.12936e-05 5.55795e-05
42 1 10.493 6.87269 5.56387 1.58387e-05 -4.35479e-06 -2.32205e-06 1.65898e-05
43 1 10.2281 7.97516 7.8839 4.97079e-05 -1.09852e-05 7.30502e-06 5.14287e-05
44 1 9.7504 2.65701 0.344289 -4.01469e-06 1.61298e-05 -1.98168e-05 2.5865e-05
45 1 8.74566 7.01057 9.5658 -5.18833e-06 -1.52906e-05 -1.89187e-05 2.48724e-05
46 1 9.96535 9.13108 10.12 5.79246e-05 3.6468e-05 9.59481e-07 6.84551e-05
47 1 9.7526 10.3311 12.3442 4.0181e-05 3.83773e-05 -4.17631e-05 6.95089e-05
48 1 10.7539 7.78493 12.5327 2.83235e-05 7.94293e-06 -1.63045e-05 3.36325e-05
49 1 8.69807 11.4776 10.2424 -5.61907e-06 1.75176e-05 1.98195e-05 2.70417e-05
50 1 10.1642 0.316354 8.55427 3.20656e-05 3.49565e-06 7.70491e-07 3.22648e-05
51 1 10.57 2.47508 4.73732 -2.36452e-05 -3.18433e-05 1.82837e-06 3.97043e-05
52 1 9.22485 9.17361 5.64234 4.26085e-05 1.30628e-05 -1.40471e-05 4.67273e-05
53 1 8.88033 2.65047 8.7552 1.17569e-05 2.14499e-05 1.34838e-05 2.79309e-05
54 1 10.3301 3.59297 7.05965 4.62321e-07 -1.97527e-05 8.40434e-06 2.14713e-05
55 1 8.11134 2.74134 4.24858 -2.28961e-05 -1.57543e-05 -2.67764e-05 3.85928e-05
56 1 10.6637 10.1351 3.99092 3.01503e-05 -1.57618e-06 4.67363e-05 5.564e-05
57 1 6.73399 9.43777 5.25014 -2.36109e-05 2.47639e-05 -5.12199e-07 3.42197e-05
58 1 8.95886 10.3158 7.95558 5.15049e-05 2.51167e-05 3.40333e-05 6.66473e-05
59 1 7.48387 9.38413 9.64497 1.40291e-05 -3.46268e-06 1.53969e-05 2.11156e-05
60 1 7.26216 10.5311 11.9529 -2.76128e-06 -4.28116e-06 -2.51791e-05 2.56893e-05
61 1 8.42049 9.27742 1.21554 -2.65481e-05 2.65297e-06 2.1097e-05 3.40136e-05
62 1 10.4131 11.2763 6.26978 1.70754e-05 2.20218e-05 -1.62685e-05 3.22676e-05
63 1 6.20677 11.7153 9.85155 4.15032e-05 1.75275e-05 -1.31728e-05 4.69388e-05
64 1 9.66009 11.4025 1.76306 1.64496e-06 -7.91666e-06 2.15605e-05 2.30268e-05
65 1 10.8164 1.33041 2.45037 -4.48439e-05 4.29855e-06 2.33819e-05 5.0756e-05
66 1 9.37379 0.374972 4.13439 -4.38789e-06 3.50553e-05 2.34051e-07 3.53296e-05
67 1 9.12324 1.51227 6.43311 4.31715e-05 -6.50374e-06 -7.27074e-06 4.42599e-05
68 1 7.66836 0.561812 8.1399 -3.07213e-05 3.11093e-06 3.9095e-05 4.98186e-05
69 1 9.91549 1.46759 10.8489 -2.95121e-07 6.5877e-06 2.39034e-06 7.01417e-06
70 1 8.54595 0.525027 12.5713 -3.51383e-06 4.8473e-05 6.47445e-06 4.90295e-05
71 1 5.54503 7.36583 4.65377 -2.04791e-05 -2.73469e-06 9.58536e-06 2.27761e-05
72 1 0.676449 11.0525 2.33034 -1.00536e-05 -1.52864e-05 -2.42197e-05 3.03536e-05
73 1 6.99005 8.33071 2.9351 1.97395e-05 1.12508e-05 -2.07976e-05 3.08021e-05
74 1 4.87845 6.30676 10.7737 6.3384e-05 -5.85385e-05 6.65168e-05 0.000108944
75 1 2.95144 12.0061 5.022 6.05783e-06 2.8101e-05 1.91528e-06 2.88103e-05
76 1 2.01772 12.0526 0.603068 -1.90686e-05 -4.09392e-05 2.10658e-05 4.98337e-05
77 1 3.32663 2.08249 1.17017 -5.01658e-05 -5.53156e-05 -1.85401e-05 7.69426e-05
78 1 1.91776 1.0831 2.88268 3.45896e-06 -1.90228e-05 -2.06412e-05 2.82823e-05
79 1 1.68831 2.239 5.15745 -1.27434e-05 6.91541e-06 -2.30461e-05 2.72275e-05
80 1 0.219089 1.28152 6.85865 -2.03416e-05 2.07842e-05 -1.18227e-05 3.13933e-05
81 1 0.722679 9.87019 0.147662 -1.60288e-06 1.06273e-05 2.43486e-06 1.10199e-05
82 1 2.44845 2.14684 9.61826 9.75253e-06 3.28328e-05 1.08922e-05 3.59409e-05
83 1 4.60195 4.23144 1.66825 -3.45454e-05 5.25316e-05 -8.54711e-06 6.34508e-05
84 1 0.649574 3.39939 3.07632 -1.7016e-05 2.71645e-05 -6.05993e-07 3.20597e-05
85 1 2.89755 4.31284 5.76745 -2.20221e-05 -4.5343e-05 7.65643e-06 5.09861e-05
86 1 1.43359 3.35993 7.47613 4.88532e-06 1.1896e-05 -4.57525e-05 4.75255e-05
87 1 3.67479 4.23797 10.1563 3.08924e-06 -2.524e-06 -2.44657e-05 2.47888e-05
88 1 2.24819 3.26151 11.8814 -8.41311e-07 -3.14429e-05 -3.03558e-05 4.37131e-05
89 1 0.962574 1.15019 11.3699 3.82449e-05 1.56466e-05 1.22778e-05 4.31072e-05
90 1 3.18205 6.48576 1.96188 -5.05045e-05 -1.66463e-05 3.02156e-06 5.32628e-05
91 1 11.2002 11.2219 10.7027 -5.14716e-05 -5.81169e-05 5.42961e-05 9.47363e-05
92 1 1.4894 11.0525 6.74077 -1.09678e-06 -2.3989e-06 3.55034e-05 3.56012e-05
93 1 11.3815 2.39194 9.16385 4.77162e-06 -2.70451e-05 -3.23508e-07 2.74647e-05
94 1 1.98439 4.39135 1.35385 -5.51356e-05 2.5158e-05 1.72525e-05 6.3012e-05
95 1 0.391659 4.54427 5.39411 7.30332e-06 -1.72107e-06 -1.10475e-05 1.33547e-05
96 1 1.17759 4.47935 9.78151 4.18927e-05 2.23825e-05 -9.64498e-06 4.84665e-05
97 1 11.1632 3.50094 11.4522 -1.75348e-05 -9.63963e-05 6.39036e-05 0.000116976
98 1 0.59962 6.65006 1.58189 7.81545e-06 3.47247e-05 -9.61425e-05 0.00010252
99 1 0.0314709 10.087 8.44479 1.2625e-05 -2.45842e-05 -2.01851e-06 2.77101e-05
100 1 1.58366 6.62788 6.01587 9.70831e-06 1.89603e-05 -1.39984e-05 2.54892e-05
101 1 1.87794 8.7532 2.16338 -5.40636e-05 -2.0298e-05 7.52019e-06 5.8236e-05
102 1 0.572797 7.79676 3.92057 1.74847e-06 2.19322e-05 1.91303e-05 2.91556e-05
103 1 0.287519 8.94885 6.19009 9.45804e-06 -1.47023e-05 -2.19381e-05 2.80516e-05
104 1 0.966861 8.82003 10.6976 4.28734e-06 1.71388e-05 -2.05033e-05 2.70648e-05
105 1 2.05425 7.62405 12.7018 -8.0118e-05 -1.8789e-05 2.80728e-05 8.69483e-05
106 1 3.16301 10.852 2.74327 -1.37628e-05 5.29278e-06 3.61417e-06 1.51819e-05
107 1 0.123487 5.68422 7.70498 8.20609e-06 6.07076e-06 4.59995e-06 1.11961e-05
108 1 1.84435 5.49106 3.69842 -4.30597e-05 -2.86513e-06 -1.85814e-05 4.69852e-05
109 1 4.09079 6.39623 6.37089 1.69435e-05 -2.01572e-05 -6.01151e-06 2.70098e-05
110 1 2.62958 5.43882 8.08307 -2.35185e-06 -5.45941e-05 4.89605e-05 7.33701e-05
111 1 4.18083 2.00791 5.55951 3.66331e-05 -1.97562e-06 -2.59105e-05 4.49138e-05
112 1 2.70676 1.04628 7.29718 5.60525e-06 -2.43743e-05 -1.39705e-05 2.86478e-05
113 1 4.9413 1.91537 10.0167 3.62855e-05 1.1645e-05 6.28491e-06 3.86231e-05
114 1 3.49873 0.948195 11.7351 1.32884e-05 -1.38261e-05 -1.28968e-05 2.311e-05
115 1 7.15267 4.03843 2.03701 -3.51702e-05 3.33536e-05 -3.23287e-05 5.82627e-05
116 1 3.15784 3.20514 3.42485 3.21766e-06 9.60816e-06 1.66706e-05 1.95084e-05
117 1 4.407 0.866757 3.30058 -3.31808e-05 5.76201e-06 2.5681e-07 3.36783e-05
118 1 5.39907 4.08919 6.12138 2.53051e-05 -1.61533e-06 1.01544e-05 2.73142e-05
119 1 6.16775 4.00397 10.5862 -3.54097e-06 -9.07477e-05 -9.05948e-06 9.12675e-05
120 1 4.76795 3.08674 12.2943 -1.64665e-05 -1.25238e-06 -3.78145e-05 4.12632e-05
121 1 5.74737 6.27561 2.34935 -4.92643e-05 -1.42045e-05 1.0896e-06 5.12828e-05
122 1 4.34062 5.28251 4.04737 1.77293e-05 2.2542e-05 -2.73508e-05 3.963e-05
123 1 6.60734 6.16678 6.69488 2.66182e-05 5.9709e-06 1.05218e-06 2.72999e-05
124 1 5.13579 5.20152 8.43523 -1.30351e-05 -1.24493e-05 -1.96642e-05 2.66755e-05
125 1 3.92309 3.11831 7.87066 -6.51753e-07 -2.18002e-06 -1.22532e-05 1.24627e-05
126 1 5.84267 1.86198 1.58848 -2.05738e-05 -1.05442e-05 1.9871e-05 3.04847e-05
127 1 4.57154 11.8428 1.02462 -4.68195e-06 -1.29984e-05 1.82814e-05 2.29148e-05
128 1 1.24849 0.082228 9.01668 1.35017e-05 4.87167e-05 -2.57555e-05 5.67358e-05
129 1 2.31289 6.5209 10.4472 3.7383e-05 -2.44387e-05 -3.65846e-05 5.77336e-05
130 1 0.779536 5.52639 12.2087 -3.10219e-05 6.82029e-05 2.68076e-05 7.95778e-05
131 1 4.42979 8.555 2.56151 -2.42601e-05 3.0228e-06 -3.27184e-06 2.46657e-05
132 1 3.039 7.58178 4.29826 -9.97403e-06 -4.0934e-05 2.75133e-05 5.03195e-05
133 1 2.75571 8.69713 6.63462 1.01334e-06 6.23131e-08 2.46945e-06 2.67001e-06
134 1 1.26902 7.72329 8.40425 2.53878e-05 3.88431e-06 9.11962e-06 2.72543e-05
135 1 3.52135 8.61663 10.9942 2.54964e-05 -3.43725e-05 -5.09313e-06 4.30985e-05
136 1 4.63305 7.43322 0.258648 -1.54566e-05 1.04222e-05 -1.95192e-05 2.69912e-05
137 1 5.66745 10.6271 3.15171 -3.26672e-05 -7.69325e-06 1.43149e-05 3.64863e-05
138 1 1.74435 9.90424 4.47937 -1.97463e-05 6.09155e-06 -1.87968e-05 2.79346e-05
139 1 3.95507 10.7934 7.17614 1.80864e-05 -5.14834e-06 -3.45069e-05 3.92982e-05
140 1 2.4746 9.81805 8.92365 2.98149e-05 -4.8496e-06 -2.84991e-05 4.15288e-05
141 1 2.24414 10.9095 11.2 -7.6936e-07 -7.66929e-06 1.31031e-05 1.5202e-05
142 1 3.3182 9.72898 0.459001 -4.53237e-05 5.08196e-06 -2.61902e-05 5.25927e-05
143 1 5.42901 11.7541 5.44395 -2.55174e-06 -2.15817e-05 -2.19351e-05 3.08776e-05
144 1 3.42313 5.36049 12.4707 -1.17885e-05 1.20512e-05 -1.12653e-05 2.02757e-05
145 1 0.462719 0.144793 4.58242 -5.1446e-06 4.38061e-06 3.90877e-05 3.96674e-05
