ITEM: TIMESTEP
0
ITEM: NUMBER OF ATOMS
122
ITEM: BOX BOUNDS pp pp pp
0.0000000000000000e+00 1.1464695000000001e+01
0.0000000000000000e+00 1.1317634999999999e+01
0.0000000000000000e+00 1.1648808000000001e+01
ITEM: ATOMS id type x y z fx fy fz v_fmag
1 1 11.167 0.420282 2.55096 4.55192e-05 2.43139e-05 6.33617e-06 5.19934e-05
2 1 7.647 9.78792 0.36111 5.18578e-05 -4.43606e-06 -2.1123e-05 5.61701e-05
3 1 8.221 5.84695 9.95522 2.35884e-06 1.4759e-06 -2.2739e-05 2.29086e-05
4 1 6.67631 4.96731 8.24943 3.69473e-05 1.24714e-05 -3.78051e-05 5.43127e-05
5 1 7.91507 6.40273 6.53007 -5.38792e-06 1.54197e-05 -2.80958e-05 3.24988e-05
6 1 7.62593 5.94548 4.06621 1.50587e-05 -1.19415e-05 -2.04899e-05 2.80927e-05
7 1 8.96133 7.40379 2.31618 -3.21356e-05 2.875e-06 -4.4831e-05 5.52339e-05
8 1 7.86042 3.07151 9.70591 -1.6712e-05 -8.72678e-06 1.94551e-05 2.70915e-05
9 1 7.64823 2.66164 7.24403 -1.18841e-05 -9.35989e-06 3.96138e-06 1.56375e-05
10 1 8.8785 4.17542 5.47509 3.09472e-05 -3.9176e-05 7.12936e-06 5.04313e-05
11 1 7.35441 3.46617 3.66381 -9.93754e-07 -1.38853e-05 -5.42125e-06 1.49392e-05
12 1 8.5333 4.96106 1.83925 -2.91811e-05 3.02478e-05 1.01968e-05 4.32486e-05
13 1 8.86613 0.8213 8.54415 -3.18849e-05 -3.30228e-05 4.06123e-08 4.59038e-05
14 1 8.14942 9.67854 2.68085 -8.24246e-06 -2.26427e-05 -8.39456e-06 2.55167e-05
15 1 7.34879 0.112718 6.80679 1.00443e-05 -6.45629e-06 1.4419e-05 1.87211e-05
16 1 5.74294 2.78948 2.03963 -3.66961e-05 -5.56564e-06 7.38003e-06 3.78424e-05
17 1 6.9566 4.38958 0.0447429 -1.92307e-06 -2.22012e-05 1.69515e-05 2.7999e-05
18 1 7.27002 0.898143 3.04683 -4.5171e-05 -4.97857e-06 -8.95344e-06 4.63181e-05
19 1 5.91881 1.99895 11.4834 2.90191e-05 -2.24427e-05 -1.05593e-05 3.81743e-05
20 1 4.64341 10.4517 9.29792 -3.31376e-05 -2.85753e-06 7.5859e-05 8.28303e-05
21 1 2.95025 11.0574 5.85066 -7.40497e-06 7.54817e-06 -2.95863e-05 3.1419e-05
22 1 3.72482 9.55872 1.35602 -5.89598e-05 -0.000113695 -0.000165885 0.000209573
23 1 5.96989 8.58121 10.7219 7.50827e-06 1.40063e-06 1.59157e-05 1.76535e-05
24 1 4.48052 7.744 8.90914 2.08364e-05 -2.62942e-05 -4.03266e-05 5.24573e-05
25 1 5.76259 9.38581 7.32777 2.72702e-05 1.60594e-05 1.7231e-05 3.60344e-05
26 1 4.24149 8.62734 5.57462 -1.45886e-05 4.49777e-05 1.54037e-05 4.97302e-05
27 1 6.45975 7.86883 2.68393 -5.24275e-06 -1.27898e-05 -2.88917e-05 3.20281e-05
28 1 8.59551 1.64146 5.01778 -1.90788e-05 -2.1028e-05 1.4688e-05 3.19674e-05
29 1 6.69203 8.29667 5.11561 -2.05901e-05 6.98144e-05 1.10055e-05 7.36147e-05
30 1 8.24402 9.06177 6.9457 2.99511e-05 -1.57407e-05 -2.9283e-05 4.47475e-05
31 1 6.9824 7.57876 8.61128 -1.20549e-05 -1.33113e-05 6.58093e-06 1.91264e-05
32 1 9.15897 0.229593 1.30058 4.82947e-05 2.2074e-05 4.17764e-05 6.75641e-05
33 1 11.0284 8.25929 10.1669 1.92815e-05 -1.8756e-05 9.75709e-06 2.86141e-05
34 1 9.49855 7.33125 8.19987 2.68227e-05 -3.63155e-05 -1.90845e-05 4.90152e-05
35 1 10.6518 9.05465 5.93168 -2.68902e-05 -5.64948e-05 -9.69523e-06 6.33146e-05
36 1 9.08329 7.76869 4.74071 1.19577e-05 0.000131077 -3.68743e-05 0.000136689
37 1 10.537 9.34646 3.33189 3.40532e-05 4.96136e-05 -2.82236e-05 6.64658e-05
38 1 10.1282 9.18824 0.823687 1.71855e-05 1.45035e-05 -6.61482e-06 2.34404e-05
39 1 9.46062 4.14706 11.2364 -1.7046e-05 9.90944e-06 1.86577e-05 2.71454e-05
40 1 9.2012 4.53585 8.01089 -1.88144e-05 1.37377e-05 -3.90454e-05 4.5467e-05
41 1 10.4328 5.98556 6.29085 -3.56694e-06 1.06651e-05 -5.71917e-05 5.82869e-05
42 1 10.0917 5.58035 3.68478 -2.83539e-06 1.63708e-05 1.78343e-06 1.671e-05
43 1 9.81892 6.61693 0.104927 2.22144e-05 6.30625e-06 -2.19884e-05 3.18863e-05
44 1 10.2106 1.99912 10.2228 -3.24409e-05 4.46243e-05 -1.57308e-05 5.7369e-05
45 1 10.1281 2.4877 6.85249 -3.09947e-05 -7.89219e-05 -9.64185e-06 8.53364e-05
46 1 9.72276 3.0472 3.13148 3.95127e-05 6.29405e-05 -1.3493e-05 7.55303e-05
47 1 10.9971 4.80052 1.43696 -1.44126e-05 -4.55179e-06 1.00478e-05 1.81493e-05
48 1 9.77614 10.6393 10.4783 6.41072e-05 1.43967e-05 -1.74474e-05 6.79809e-05
49 1 10.0595 0.0661254 6.39619 2.74265e-06 1.11443e-05 -1.20878e-05 1.66683e-05
50 1 11.3422 3.92425 5.05133 -6.94539e-06 -1.33949e-05 -4.47796e-06 1.5739e-05
51 1 8.13977 2.51027 1.17193 -5.08829e-06 -1.11458e-05 -2.95116e-06 1.26027e-05
52 1 10.6895 2.30918 0.92719 -7.7387e-06 4.70158e-06 -1.15323e-05 1.46624e-05
53 1 11.0434 1.55047 4.6453 -2.45786e-05 -1.25488e-05 -6.65457e-06 2.83878e-05
54 1 7.91095 0.795125 10.918 1.55525e-05 -1.13228e-05 8.14355e-06 2.08903e-05
55 1 7.35611 10.1715 9.21221 2.98724e-05 1.96577e-05 8.09338e-06 3.66645e-05
56 1 5.81926 10.6559 4.92776 -9.1696e-06 3.34499e-05 -4.2567e-06 3.49442e-05
57 1 5.77437 10.368 2.35755 4.01752e-05 -2.24064e-05 3.06443e-05 5.52735e-05
58 1 8.60802 8.32866 10.3391 1.44462e-06 -2.15441e-06 -4.76426e-05 4.77132e-05
59 1 4.84608 7.15058 0.900661 -1.36591e-06 8.1853e-06 2.87119e-05 2.98871e-05
60 1 5.72399 6.10644 10.3767 6.12734e-06 2.41015e-05 -3.8626e-05 4.5939e-05
61 1 4.10886 5.2599 8.60332 1.22758e-05 2.276e-05 -2.24772e-05 3.42628e-05
62 1 5.41863 6.73736 6.86119 3.19672e-05 5.39936e-06 5.2626e-05 6.18106e-05
63 1 2.68759 3.16272 8.01269 -4.01763e-05 4.85163e-05 -3.15045e-05 7.04308e-05
64 1 3.89959 4.75674 6.23421 1.49899e-07 1.16363e-05 -2.88302e-05 3.10903e-05
65 1 2.31086 3.80805 4.602 -1.10164e-05 -6.29096e-06 -4.6343e-05 4.8048e-05
66 1 3.64606 5.45166 2.7269 5.50597e-07 -5.01202e-06 1.42805e-05 1.51445e-05
67 1 2.75879 11.1447 11.114 3.4154e-06 -3.69962e-05 2.49497e-06 3.72371e-05
68 1 4.02304 1.56993 9.8978 -2.88503e-05 -1.23326e-05 8.45348e-05 9.01696e-05
69 1 2.5947 0.560952 8.18296 9.20445e-06 -1.93501e-05 2.94739e-05 3.64398e-05
70 1 3.64807 2.14892 5.81719 1.40072e-05 1.74747e-05 1.84434e-05 2.90125e-05
71 1 0.740048 2.98182 2.77045 2.06295e-05 4.63167e-06 -2.21477e-05 3.06195e-05
72 1 1.82095 2.06186 0.670269 7.94457e-05 -2.35417e-05 -4.96219e-05 9.65824e-05
73 1 2.13138 1.29835 3.94474 -2.23028e-05 -1.32515e-05 -1.78686e-05 3.15009e-05
74 1 0.218079 0.165027 0.0382979 5.23746e-05 4.59268e-05 -1.05605e-06 6.96669e-05
75 1 1.19693 9.10477 0.353 -1.03896e-05 2.53936e-05 -1.237e-05 3.00964e-05
76 1 0.866996 10.4015 7.09342 3.17905e-05 3.08715e-05 8.81211e-05 9.86357e-05
77 1 1.5972 8.85748 3.04334 -1.54586e-05 1.22505e-05 5.77016e-06 2.05508e-05
78 1 0.813894 6.4235 11.3477 2.35723e-05 -2.14164e-05 -2.70596e-05 4.17916e-05
79 1 10.7654 5.72057 9.50411 -1.02204e-05 -1.77202e-05 -5.46111e-06 2.11727e-05
80 1 0.438252 7.61891 7.51077 1.30804e-05 -4.81184e-05 6.00401e-05 7.80467e-05
81 1 0.197029 7.27385 4.54501 2.74112e-05 6.09671e-05 -4.52721e-05 8.07337e-05
82 1 11.4178 7.30356 1.95947 -1.98811e-06 1.32959e-05 -6.64363e-06 1.49957e-05
83 1 0.438057 3.88437 10.884 3.73792e-06 -1.5072e-05 1.0422e-05 1.87017e-05
84 1 0.183466 3.48657 8.41806 4.79847e-06 2.63419e-05 -1.50118e-05 3.06965e-05
85 1 1.34095 5.07161 6.62388 -2.23717e-05 3.1315e-05 7.94558e-06 3.9297e-05
86 1 1.14844 5.45936 3.18159 -2.54269e-05 -2.77477e-05 -1.24586e-05 3.96443e-05
87 1 11.3357 0.838412 8.39223 -5.24382e-05 -4.51176e-05 1.66762e-05 7.1158e-05
88 1 1.40765 1.75086 9.96414 -2.80264e-05 1.94433e-05 -4.67795e-05 5.78951e-05
89 1 1.20085 1.85009 6.4301 -3.57702e-05 -6.53209e-05 5.3744e-06 7.46673e-05
90 1 2.90162 3.70799 10.4638 -2.25386e-05 3.64033e-05 -2.9655e-05 5.20827e-05
91 1 8.47622 10.3966 4.85419 -4.0103e-05 1.49527e-05 -3.34788e-06 4.29307e-05
92 1 2.02078 4.64387 0.988394 1.5429e-05 -7.6162e-06 7.04661e-07 1.72208e-05
93 1 2.67405 6.50183 4.79642 3.49467e-06 -1.74934e-05 7.78644e-06 1.94643e-05
94 1 5.21843 6.26267 4.49721 -3.12847e-05 2.23972e-05 -5.07135e-06 3.88084e-05
95 1 7.34599 6.95237 0.491193 -1.04721e-05 -2.24418e-05 2.20043e-05 3.31284e-05
96 1 5.37519 3.66263 9.89659 1.16041e-05 -3.32996e-05 2.75125e-05 4.47265e-05
97 1 5.17159 2.9507 7.58103 -1.25223e-05 -7.14021e-06 5.82657e-06 1.5548e-05
98 1 6.42374 4.45854 5.86667 7.0937e-06 2.1164e-05 9.77936e-06 2.43695e-05
99 1 4.84766 3.74218 4.14538 -2.11792e-06 3.48504e-05 -2.31497e-05 4.1892e-05
100 1 6.08572 5.33289 2.2511 2.27587e-05 1.27229e-06 2.44107e-05 3.33985e-05
101 1 5.51338 10.897 11.487 5.83006e-05 1.0743e-05 -2.51869e-06 5.93356e-05
102 1 6.32831 1.17411 9.02274 -4.4573e-05 -3.72278e-06 1.2483e-05 4.64374e-05
103 1 4.90177 0.431308 7.1424 -4.80509e-06 -8.50161e-06 -8.17058e-06 1.27328e-05
104 1 6.17096 1.90881 5.39192 1.27181e-05 3.14575e-05 -1.49339e-06 3.3964e-05
105 1 3.2655 2.99046 2.40602 1.419e-05 -1.0187e-05 -1.45348e-05 2.27242e-05
106 1 4.50789 4.42151 0.53986 1.2241e-06 -6.13287e-06 2.16383e-05 2.25239e-05
107 1 4.66051 1.18082 3.64918 -3.05276e-05 2.83873e-05 -1.04253e-05 4.29704e-05
108 1 4.08126 0.929694 1.27592 8.91186e-06 -3.39356e-05 5.83794e-05 6.81116e-05
109 1 1.05773 10.221 9.58239 -1.37155e-05 1.60422e-05 8.23583e-06 2.2656e-05
110 1 0.733562 10.6901 4.60759 -1.77745e-05 -4.44036e-06 -2.44817e-05 3.05778e-05
111 1 1.91755 11.1287 1.91684 1.56477e-05 -1.25271e-05 9.58421e-06 2.22179e-05
112 1 3.47988 8.77281 10.8456 2.92194e-05 7.88152e-05 0.00025421 0.000267747
113 1 1.86406 7.81458 9.43078 -0.00010825 -2.30376e-05 -7.04339e-05 0.000131186
114 1 3.02613 9.40367 7.78666 1.2587e-05 -8.33023e-06 2.30159e-06 1.52683e-05
115 1 1.83657 8.71491 5.59571 3.05148e-05 -4.35431e-05 -4.6549e-06 5.33743e-05
116 1 3.52589 10.3267 3.68252 -1.01871e-05 2.84727e-05 0.000114811 0.000118727
117 1 2.4246 7.17647 1.40892 -1.20675e-05 -4.29095e-05 -2.45567e-05 5.08908e-05
118 1 3.26809 6.20986 10.834 2.33976e-05 -3.01092e-05 3.97201e-06 3.83378e-05
119 1 1.67693 5.39551 9.04399 -1.53799e-05 2.00922e-05 -3.23073e-06 2.55084e-05
120 1 2.86652 6.95789 7.20342 2.83632e-06 1.01626e-06 2.37085e-05 2.38991e-05
121 1 4.01946 7.95784 3.20133 -5.84203e-06 -5.87353e-05 8.03144e-05 9.96713e-05
122 1 10.1991 9.74777 8.30971 -5.24739e-06 -3.63972e-05 3.82391e-05 5.3052e-05
