ITEM: TIMESTEP
0
ITEM: NUMBER OF ATOMS
146
ITEM: BOX BOUNDS pp pp pp
0.0000000000000000e+00 1.1400361000000000e+01
0.0000000000000000e+00 1.2098903999999999e+01
0.0000000000000000e+00 1.2816801000000000e+01
ITEM: ATOMS id type x y z fx fy fz v_fmag
1 1 0.79212 2.2319 0.904401 -4.34179e-05 1.09817e-05 -1.77037e-05 4.81573e-05
2 1 8.4224 1.89667 11.4791 -9.38279e-06 -3.6574e-05 -2.14725e-05 4.34368e-05
3 1 6.44189 4.38359 2.42903 -7.86723e-07 -5.06055e-06 -2.40294e-05 2.45691e-05
4 1 7.88308 5.11705 4.37887 3.68348e-05 -2.68207e-05 -2.15838e-05 5.04184e-05
5 1 7.67186 4.02129 6.69606 3.75455e-05 -1.58865e-05 5.80143e-06 4.11789e-05
6 1 9.03865 4.36285 8.79801 -1.33642e-05 2.25293e-06 2.58918e-05 2.92243e-05
7 1 7.61178 4.18582 10.8955 -6.27489e-05 -1.41457e-05 -4.88106e-05 8.07465e-05
8 1 7.09159 1.50668 9.42277 5.65194e-06 -3.1218e-05 2.32028e-05 3.9305e-05
9 1 9.00554 5.05617 0.107142 -4.40966e-05 5.68988e-05 -6.5231e-07 7.19889e-05
10 1 9.55016 6.99814 3.99537 -2.96843e-05 4.20765e-05 -1.82367e-05 5.46275e-05
11 1 6.84734 6.35226 6.31534 -5.98388e-05 1.55687e-05 -3.74975e-05 7.23127e-05
12 1 8.19441 6.89545 8.3581 3.10652e-05 2.06823e-05 2.47806e-06 3.74025e-05
13 1 6.84948 6.62589 10.5227 1.44447e-05 2.88089e-05 -1.42795e-05 3.52492e-05
14 1 8.27236 7.4255 12.5177 5.85146e-05 -7.06357e-05 -7.03091e-06 9.19935e-05
15 1 7.28466 8.62694 1.6758 -4.14054e-05 4.46288e-05 -2.77866e-05 6.69196e-05
16 1 5.61366 6.71371 1.9729 -6.05157e-05 8.63728e-06 -3.62631e-05 7.10758e-05
17 1 8.74663 9.39786 3.69146 1.18896e-05 1.64662e-05 5.08064e-05 5.47155e-05
18 1 8.44938 1.73806 7.30713 -3.17304e-05 2.08991e-05 2.47232e-05 4.53302e-05
19 1 8.69775 2.7685 4.82016 -3.48409e-05 2.24682e-05 5.31871e-06 4.17971e-05
20 1 6.30995 9.87842 3.6382 -2.10548e-06 -4.45956e-06 -1.01873e-05 1.13182e-05
21 1 6.0644 8.71256 5.95372 -2.70032e-05 -2.2075e-05 -1.66755e-05 3.86594e-05
22 1 7.45025 9.38621 7.97296 7.44419e-06 -3.1433e-06 9.82462e-06 1.27208e-05
23 1 3.7098 9.57407 10.1093 2.31622e-05 -2.49997e-05 -2.11447e-05 4.0107e-05
24 1 5.0999 10.2639 12.133 6.73553e-06 4.24868e-06 -1.38091e-06 8.08242e-06
25 1 4.06626 11.4791 1.29345 -4.51219e-05 3.43412e-05 5.3008e-05 7.76219e-05
26 1 6.99906 0.919399 5.30414 -2.9765e-05 5.4266e-05 3.92245e-05 7.32756e-05
27 1 5.30832 11.0978 5.61591 -1.55903e-05 7.15049e-06 3.52413e-05 3.91936e-05
28 1 8.21088 0.762181 0.98542 -2.91676e-05 -1.47352e-05 1.15011e-05 3.46432e-05
29 1 8.02179 11.7981 3.32623 3.15733e-05 3.31013e-05 -1.591e-06 4.57722e-05
30 1 9.1493 11.363 7.6497 -1.02076e-05 -1.51364e-05 -1.00917e-05 2.08602e-05
31 1 6.76843 0.0421103 11.8057 5.63516e-05 -1.15051e-05 2.19358e-05 6.15552e-05
32 1 7.41722 3.15525 0.544702 -4.48683e-06 -6.21302e-06 -2.46549e-05 2.58185e-05
33 1 7.27951 2.04996 2.87675 1.28389e-05 7.15682e-05 -9.17033e-06 7.32866e-05
34 1 5.39726 11.5757 9.77232 4.10974e-05 -8.58682e-05 2.00277e-05 9.72802e-05
35 1 8.49964 8.23366 5.98902 -3.83717e-05 2.50652e-05 -3.10124e-05 5.53391e-05
36 1 9.87147 8.90066 8.05026 -1.11742e-05 2.17924e-05 2.71379e-05 3.65546e-05
37 1 6.1322 9.08624 10.156 4.47307e-05 -2.87769e-06 3.93102e-06 4.49952e-05
38 1 11.1305 2.95108 9.13758 1.74784e-05 5.78238e-05 7.06723e-05 9.29713e-05
39 1 10.0273 3.78316 11.1252 8.64732e-05 -6.42746e-05 -9.28864e-05 0.000142256
40 1 8.11249 6.26617 2.03837 2.05926e-05 4.88462e-06 -4.49592e-05 4.96915e-05
41 1 9.29531 5.87648 6.33882 7.4567e-06 -1.89828e-05 -1.45985e-05 2.50812e-05
42 1 10.6126 6.42264 8.45975 -1.53752e-05 -2.25472e-05 4.6167e-06 2.76783e-05
43 1 9.26582 6.15714 10.5901 3.01516e-05 1.68356e-05 -1.45651e-05 3.74793e-05
44 1 0.303617 5.45866 6.49206 -2.09125e-05 9.78097e-06 -3.86063e-06 2.34073e-05
45 1 10.986 8.08989 10.3101 -5.1384e-06 5.53463e-06 1.21132e-06 7.6487e-06
46 1 11.1841 8.9655 3.73052 3.40259e-05 2.269e-07 -9.48709e-06 3.53244e-05
47 1 10.9168 7.80038 6.09404 -3.68209e-06 -3.38148e-05 -3.62436e-05 4.97051e-05
48 1 8.55767 8.59483 10.2067 4.59068e-05 1.59669e-05 -9.77057e-06 4.95766e-05
49 1 9.97199 9.31222 12.2353 1.43145e-05 1.19869e-05 2.86719e-05 3.4215e-05
50 1 9.02781 10.4913 1.38773 -1.92169e-05 6.35126e-05 3.73769e-05 7.61589e-05
51 1 10.1671 10.16 5.69942 -1.44418e-05 1.75467e-05 1.74168e-05 2.86321e-05
52 1 9.74881 8.14152 1.71967 8.08983e-06 -1.78556e-05 -3.52928e-05 4.03714e-05
53 1 10.1355 3.54278 6.73782 5.35765e-05 2.45745e-05 2.14921e-08 5.89436e-05
54 1 10.3788 4.63701 4.36558 -4.49591e-05 1.3117e-05 -2.49764e-05 5.30773e-05
55 1 9.00181 3.96661 2.4527 8.19155e-06 1.98621e-05 1.52945e-05 2.63728e-05
56 1 7.53982 9.79411 12.1751 2.42846e-05 -4.45244e-06 -1.18884e-05 2.74026e-05
57 1 6.53931 10.9943 1.33595 1.29989e-06 -4.87311e-06 3.05277e-05 3.09415e-05
58 1 7.73596 10.6253 5.65235 -3.96045e-05 2.78272e-06 4.69266e-07 3.97049e-05
59 1 7.82358 11.0633 9.81317 -2.78421e-05 -1.76566e-05 2.86814e-05 4.36985e-05
60 1 10.6324 0.24458 1.02678 5.31398e-05 2.93411e-05 6.0799e-05 8.59142e-05
61 1 10.4669 11.3291 3.34883 -1.05071e-05 5.22502e-05 6.69407e-06 5.3715e-05
62 1 0.174964 10.8643 7.75406 7.77344e-06 3.81867e-06 2.71422e-05 2.84905e-05
63 1 9.20882 11.6681 11.84 -3.43997e-05 -1.34562e-05 3.36803e-05 4.99877e-05
64 1 9.82463 2.64938 0.591441 2.44279e-05 -3.00765e-05 -6.02232e-06 3.9212e-05
65 1 9.8145 1.60631 2.90587 -4.1568e-05 -2.50932e-05 -3.54333e-05 6.0109e-05
66 1 11.1801 2.26652 4.85004 2.83952e-07 -1.87413e-05 2.21357e-05 2.90053e-05
67 1 9.43022 0.443116 5.32996 2.28664e-05 -2.67895e-05 -2.01773e-06 3.52792e-05
68 1 10.8655 1.20106 7.32248 3.39453e-05 3.11562e-06 -1.59594e-05 3.76389e-05
69 1 9.51974 0.935543 9.48445 -5.92874e-07 2.83728e-05 3.5121e-05 4.51537e-05
70 1 10.8653 1.44505 11.5539 -1.54332e-05 4.49281e-05 1.04973e-06 4.75165e-05
71 1 4.80731 9.09895 1.62529 -1.90797e-05 -1.71998e-05 2.51711e-05 3.59646e-05
72 1 5.8398 7.88393 12.4741 -2.43048e-05 1.44398e-05 -1.1909e-06 2.82957e-05
73 1 4.42365 7.10536 10.4773 -7.28894e-06 -1.23348e-05 1.93866e-05 2.41064e-05
74 1 5.76338 7.39521 8.31635 2.59402e-05 -2.12442e-06 -3.23887e-05 4.15504e-05
75 1 4.3011 0.255353 7.56936 -5.75567e-05 -3.25609e-05 -7.3137e-06 6.65318e-05
76 1 1.87199 1.0068 11.7387 4.07935e-05 -4.01368e-05 3.67496e-05 6.80118e-05
77 1 2.47922 4.10227 0.45944 1.39055e-05 -7.46602e-06 1.0084e-05 1.87294e-05
78 1 2.16881 2.90774 2.8249 -3.75029e-05 6.16876e-05 1.95104e-06 7.22194e-05
79 1 3.76143 3.71034 4.72071 -9.67722e-05 2.90851e-05 3.44777e-05 0.000106769
80 1 2.14335 1.84714 5.22675 -5.57633e-05 4.5458e-05 4.06618e-05 8.26399e-05
81 1 3.05025 0.635967 3.25115 5.1252e-05 -4.36905e-05 -1.04639e-06 6.73552e-05
82 1 3.55758 2.7033 7.20769 -3.09763e-05 7.24525e-06 -6.4029e-06 3.24503e-05
83 1 3.51692 2.85284 11.4125 1.36231e-05 1.65344e-05 1.15117e-05 2.43206e-05
84 1 1.72343 6.40803 12.6957 3.49938e-05 -5.78067e-06 -4.68152e-06 3.57757e-05
85 1 1.37604 5.25785 2.36035 -3.01464e-05 -2.84283e-05 -5.83607e-05 7.15747e-05
86 1 2.96995 6.09376 4.27181 -1.62395e-05 -3.65339e-05 -8.85261e-07 3.99904e-05
87 1 2.7649 4.9889 6.58423 5.49441e-05 -3.71721e-05 -5.23986e-05 8.45354e-05
88 1 4.08978 5.37096 8.65396 1.52264e-05 -1.7052e-05 -8.29265e-06 2.43184e-05
89 1 2.18539 2.50125 9.33192 3.12297e-05 -1.23138e-06 4.49999e-05 5.47887e-05
90 1 3.28498 1.74821 0.900025 1.65434e-05 -4.17809e-05 3.70213e-06 4.50891e-05
91 1 0.5494 0.432307 9.60588 6.35691e-05 1.31072e-06 5.87786e-06 6.38537e-05
92 1 0.252115 11.1874 11.9485 6.38268e-05 -4.15401e-05 9.06938e-06 7.66922e-05
93 1 0.459643 12.0429 5.44087 -3.08616e-05 -3.3679e-06 6.43042e-05 7.1406e-05
94 1 1.88033 0.735387 7.50331 -5.68452e-06 5.74683e-06 1.73467e-05 1.91376e-05
95 1 11.3813 4.61091 0.448352 2.85071e-06 -4.27815e-06 -1.60259e-05 1.68303e-05
96 1 1.34723 4.20544 4.69445 2.26065e-05 -1.41008e-06 -2.36031e-05 3.27131e-05
97 1 1.12773 3.16614 7.09155 1.03128e-05 2.46206e-05 -1.06835e-05 2.87518e-05
98 1 1.04535 3.34111 11.3739 -4.784e-05 1.12821e-05 -4.44814e-05 6.62914e-05
99 1 0.552093 6.60453 4.21039 -5.24121e-05 3.64954e-05 5.18364e-06 6.40766e-05
100 1 1.63769 5.87594 8.57719 -1.34948e-05 -7.7161e-05 -3.21268e-05 8.46644e-05
101 1 0.283226 5.60485 10.6659 8.38282e-06 -6.56106e-05 -4.03297e-06 6.62668e-05
102 1 2.21093 8.46008 3.87082 -7.44582e-05 3.94197e-05 1.7973e-05 8.6145e-05
103 1 0.900579 8.39785 8.16886 1.68306e-05 -3.36908e-05 -2.85041e-05 4.72316e-05
104 1 0.96649 8.83307 12.3936 3.98583e-05 -7.63228e-06 8.6167e-06 4.14872e-05
105 1 1.44569 10.8569 3.52635 -3.60449e-06 1.41301e-05 5.7293e-05 5.91197e-05
106 1 1.19538 9.66246 5.82257 1.45022e-05 5.39039e-06 3.9377e-06 1.59648e-05
107 1 2.60148 10.3767 7.87461 2.14555e-05 -2.57674e-05 5.89431e-06 3.40446e-05
108 1 2.72886 5.12363 10.7621 1.10309e-05 -4.24752e-05 1.87865e-06 4.39244e-05
109 1 10.2611 10.5498 9.89463 5.28128e-05 -1.09532e-05 9.96332e-06 5.48492e-05
110 1 4.1621 5.95094 12.7718 -2.22904e-05 -6.5624e-06 -2.82316e-06 2.34072e-05
111 1 4.64069 7.97015 3.93035 1.45347e-05 4.49807e-05 -2.5143e-05 5.35415e-05
112 1 6.22088 3.23676 4.77103 3.89727e-05 -2.07328e-05 -4.62091e-05 6.39062e-05
113 1 4.55826 1.38526 5.26217 -1.28285e-05 7.63925e-06 4.41286e-05 4.65861e-05
114 1 5.99729 2.21791 7.24868 2.53586e-05 -8.61212e-06 4.83422e-06 2.72139e-05
115 1 4.6442 2.00224 9.38366 -1.54609e-05 -9.25637e-05 4.85587e-05 0.000105665
116 1 5.97408 2.37045 11.4552 1.68896e-05 3.12098e-05 7.03686e-07 3.54937e-05
117 1 3.90583 4.82047 2.38734 -4.73536e-06 3.8738e-05 -3.33165e-05 5.13132e-05
118 1 4.74166 2.49348 2.83645 2.22316e-05 4.07527e-05 -1.19081e-05 4.79252e-05
119 1 5.41547 5.60449 4.32446 -1.28032e-05 -1.70643e-06 4.95108e-06 1.38328e-05
120 1 6.54691 4.86504 8.71129 3.53719e-05 4.30228e-05 -1.38322e-05 5.73887e-05
121 1 5.17497 4.65346 10.8323 3.77949e-05 -3.02549e-05 -4.68327e-05 6.73581e-05
122 1 6.60044 5.4951 0.0128375 4.93913e-05 -1.42642e-05 -3.91473e-05 6.46179e-05
123 1 3.13869 7.16595 1.91635 5.79083e-06 -7.84255e-06 -2.54846e-05 2.72856e-05
124 1 7.08625 7.48532 3.98358 8.09951e-06 1.22597e-05 -3.31112e-06 1.50621e-05
125 1 4.40567 6.83669 6.27217 2.9304e-05 -1.10234e-05 -3.82191e-05 4.94059e-05
126 1 5.20979 4.5022 6.63188 -4.69442e-05 5.41018e-05 -2.60937e-05 7.62342e-05
127 1 4.95989 3.63194 0.501153 2.86743e-07 -1.75328e-05 -1.79531e-05 2.50957e-05
128 1 4.32224 0.522584 11.7749 -4.59973e-05 -2.09745e-05 -1.82193e-06 5.05866e-05
129 1 6.7279 11.8679 7.6106 2.84137e-05 -7.49512e-06 1.61859e-06 2.94302e-05
130 1 1.96266 7.31257 6.21602 2.10303e-05 3.05675e-05 -3.55175e-05 5.13628e-05
131 1 3.3294 7.89183 8.26724 -6.84027e-06 -2.21836e-05 -2.44072e-05 3.3684e-05
132 1 1.99532 7.58881 10.4229 5.99071e-05 -1.28208e-05 3.92045e-05 7.2734e-05
133 1 3.39909 8.35182 12.4309 2.34945e-05 -3.2918e-05 1.12002e-06 4.04579e-05
134 1 2.30989 9.57859 1.57325 -1.60327e-05 1.49042e-05 7.81869e-07 2.19042e-05
135 1 3.86934 10.3568 3.59094 -2.64991e-05 3.14056e-05 5.2244e-05 6.64677e-05
136 1 3.63005 9.18631 5.91032 -3.09601e-05 9.60883e-06 2.3573e-05 4.00817e-05
137 1 5.027 9.88485 7.93332 -2.16993e-05 -2.0362e-05 1.98178e-06 2.98228e-05
138 1 1.29092 10.0465 10.0205 2.97921e-05 -1.14235e-05 -6.79217e-06 3.26221e-05
139 1 2.66822 10.7428 12.0829 -1.16079e-05 7.43282e-06 2.70107e-05 3.03244e-05
140 1 1.61031 11.9662 1.25946 -6.34011e-06 7.29307e-06 -1.02054e-05 1.40548e-05
141 1 2.88301 11.56 5.57457 -1.40283e-05 -2.04875e-05 4.03222e-05 4.73541e-05
142 1 2.96786 12.067 9.73101 -2.17771e-05 -2.47905e-05 7.19668e-06 3.37729e-05
143 1 5.75839 1.25825 0.944703 -2.28009e-06 1.65453e-05 2.80162e-05 3.26168e-05
144 1 5.54752 0.165917 3.29277 -4.39378e-05 3.98841e-05 -1.15135e-05 6.04469e-05
145 1 0.708201 7.61614 1.84014 -4.51468e-05 -1.3133e-06 -4.00619e-05 6.03731e-05
146 1 10.7028 6.90787 12.5822 -3.66379e-05 1.85389e-06 8.31311e-06 3.76149e-05
