ITEM: TIMESTEP
0
ITEM: NUMBER OF ATOMS
146
ITEM: BOX BOUNDS pp pp pp
0.0000000000000000e+00 1.1396901000000000e+01
0.0000000000000000e+00 1.2680864000000000e+01
0.0000000000000000e+00 1.2228524999999999e+01
ITEM: ATOMS id type x y z fx fy fz v_fmag
1 1 2.55757 0.321842 7.74327 -1.42633e-05 -1.25533e-05 -8.90347e-06 2.09833e-05
2 1 9.98292 2.99835 1.41194 -1.64418e-05 -1.62093e-05 -9.43354e-06 2.49412e-05
3 1 8.44034 4.91667 1.07961 2.00202e-05 6.14592e-06 -7.41407e-07 2.09554e-05
4 1 9.65349 5.27504 5.28554 1.52812e-05 9.73992e-06 1.90964e-05 2.63259e-05
5 1 10.7548 6.6446 7.16817 1.46289e-05 2.78744e-05 -1.25004e-05 3.3871e-05
6 1 9.77221 4.06002 11.2317 2.10757e-05 -2.70353e-05 8.49226e-06 3.53159e-05
7 1 10.8931 5.43713 0.873301 5.56343e-06 -2.30548e-05 1.86406e-05 3.01654e-05
8 1 8.7096 2.532 9.47773 -2.10612e-05 1.92006e-06 1.66135e-05 2.68936e-05
9 1 6.89759 6.92559 0.657948 2.45904e-05 -1.26061e-05 -3.49044e-05 4.45187e-05
10 1 8.18224 7.2332 4.82775 -4.54588e-05 5.80987e-05 -1.27621e-05 7.48654e-05
11 1 8.97946 7.00829 8.87087 5.91695e-05 -1.13458e-07 3.0683e-05 6.6652e-05
12 1 9.67283 8.56252 10.5519 -5.80602e-05 5.62321e-05 2.70751e-05 8.52415e-05
13 1 8.0033 9.38682 0.155974 2.78975e-05 6.49649e-06 2.76244e-05 3.97943e-05
14 1 5.50349 7.84278 2.54611 -1.27768e-05 6.32455e-05 4.19038e-05 7.69362e-05
15 1 6.66856 9.1856 4.42218 4.11355e-05 -6.64937e-06 -1.92855e-05 4.5916e-05
16 1 7.05594 5.8544 2.95301 -2.6209e-05 -1.4867e-05 7.51218e-06 3.10544e-05
17 1 6.85129 8.16439 6.78146 3.77092e-05 -4.96386e-05 -4.69162e-05 7.80199e-05
18 1 11.1758 3.30964 9.28861 -1.0749e-05 -4.70871e-05 -3.40887e-05 5.91166e-05
19 1 8.59136 3.86348 3.40856 -5.74566e-05 1.83241e-05 2.7446e-05 6.62594e-05
20 1 5.51729 9.07429 8.70068 -6.75686e-06 -8.31695e-06 -3.06173e-05 3.24383e-05
21 1 5.42898 11.4379 0.139034 5.18816e-05 -5.53163e-06 -2.49149e-05 5.78191e-05
22 1 3.97091 9.81997 2.12453 -2.85051e-05 -3.38666e-05 -1.75719e-05 4.76262e-05
23 1 5.14189 11.1052 3.98771 -4.40905e-05 3.82723e-05 -2.12928e-05 6.2146e-05
24 1 2.8187 9.64965 6.4537 -5.78551e-05 9.24449e-06 5.63651e-06 5.88595e-05
25 1 4.009 11.0308 8.20572 7.50403e-06 -3.9149e-05 2.04347e-05 4.47943e-05
26 1 8.54122 2.82782 5.79421 -7.36195e-05 6.84564e-05 -4.00038e-05 0.000108196
27 1 4.23582 10.0369 10.5169 -4.49105e-06 -5.25668e-05 3.62027e-05 6.3985e-05
28 1 3.85613 12.022 5.86818 -1.67757e-05 2.68364e-06 -7.67329e-05 7.85911e-05
29 1 2.71827 12.0004 10.0748 -1.94251e-05 -2.10737e-05 2.78672e-05 3.99752e-05
30 1 7.52742 1.44092 3.91939 -3.41758e-05 1.107e-05 3.82258e-06 3.61268e-05
31 1 10.0517 1.73468 7.59385 -5.66636e-06 -2.93383e-05 -2.06857e-05 3.6342e-05
32 1 8.87618 1.586 11.8053 2.07999e-05 -1.07328e-05 -3.82651e-06 2.37165e-05
33 1 7.52247 2.48842 1.53648 4.6006e-05 -8.3911e-06 -4.15681e-06 4.69493e-05
34 1 4.22956 12.3491 2.05221 0.000200845 2.20044e-05 -3.69844e-05 0.000205404
35 1 8.0445 9.4385 8.67815 -2.44044e-05 -4.87429e-05 2.89921e-05 6.17413e-05
36 1 7.89462 11.8969 0.106206 3.03472e-05 -3.874e-05 -5.12815e-05 7.10742e-05
37 1 6.45149 10.2555 2.07247 5.21261e-05 5.1356e-05 -1.23201e-05 7.42048e-05
38 1 10.8143 6.38885 10.6739 2.27742e-05 -3.86981e-05 -1.96594e-05 4.90173e-05
39 1 10.5408 9.90407 0.119501 3.9196e-06 -3.07702e-05 -3.87325e-06 3.12597e-05
40 1 7.98638 8.27894 2.49983 1.39456e-06 4.27038e-05 9.98104e-06 4.38768e-05
41 1 9.14656 9.63946 4.38474 -3.29368e-05 2.95596e-05 -1.16956e-05 4.57754e-05
42 1 9.33017 8.57108 6.74852 -3.12921e-05 -3.7697e-05 -4.36052e-05 6.55871e-05
43 1 10.4492 10.0719 8.56433 -8.32546e-05 -6.84394e-05 -1.06186e-05 0.000108296
44 1 10.653 7.7148 4.76892 -2.0677e-05 -3.19472e-06 2.23521e-06 2.10414e-05
45 1 11.1567 11.2327 2.01441 0.000165866 -2.2116e-05 4.52478e-07 0.000167334
46 1 10.3191 11.0467 6.22948 2.62825e-05 -1.76895e-05 -2.75569e-05 4.19889e-05
47 1 7.8548 10.5369 6.30077 2.46544e-07 6.32257e-06 -1.56764e-06 6.51868e-06
48 1 7.71091 0.220111 9.98523 9.7287e-06 -1.40371e-05 2.71611e-05 3.20845e-05
49 1 9.20823 10.9744 10.4547 2.14329e-05 -5.23082e-05 -3.18551e-05 6.48865e-05
50 1 10.0074 12.0505 3.94582 -4.28901e-05 3.12875e-07 9.34592e-06 4.38977e-05
51 1 8.77231 0.329373 5.77443 4.06854e-06 1.07991e-05 9.45274e-06 1.49174e-05
52 1 8.85559 10.6724 2.04882 -8.74376e-05 -2.12551e-06 4.46813e-05 9.82155e-05
53 1 9.53231 6.32656 2.90709 -2.71983e-05 -8.57828e-06 -2.62339e-05 3.87498e-05
54 1 9.43995 7.42973 0.613454 -3.47075e-05 -7.26355e-06 4.83329e-05 5.99453e-05
55 1 0.921094 4.52253 11.1897 5.78418e-05 1.8746e-05 3.45802e-05 6.99492e-05
56 1 7.59112 11.5779 3.95283 2.85703e-05 -2.12981e-05 -6.23536e-05 7.18181e-05
57 1 5.34892 10.0949 6.33649 2.82314e-05 1.6196e-05 2.17519e-05 3.91468e-05
58 1 6.54964 11.4411 8.18089 2.15801e-06 -1.24135e-05 -1.36817e-05 1.85995e-05
59 1 6.73413 10.5042 10.5127 4.99397e-05 -2.78187e-05 -4.4506e-05 7.24475e-05
60 1 6.58914 0.127264 2.0394 -7.9784e-05 2.20952e-05 -4.07357e-05 9.22663e-05
61 1 6.32337 12.4656 5.81856 6.47463e-06 -4.19111e-05 -1.08913e-06 4.24223e-05
62 1 5.21729 12.4332 10.0382 7.79546e-06 3.20011e-05 -7.55702e-05 8.2436e-05
63 1 9.04517 0.512173 1.92522 -9.08851e-06 2.00811e-05 -1.89643e-05 2.90774e-05
64 1 10.0212 1.84215 3.74503 8.26038e-06 2.3762e-05 1.83278e-05 3.11251e-05
65 1 0.0875684 1.03802 1.72881 4.22277e-05 -2.46802e-05 9.43788e-07 4.89201e-05
66 1 10.9686 3.20377 5.49496 -2.37317e-05 -1.08128e-05 5.3293e-05 5.93318e-05
67 1 11.2528 0.770207 5.75689 -3.51475e-05 4.13062e-05 4.93384e-05 7.33201e-05
68 1 11.3031 2.14563 11.6205 3.6253e-05 2.56037e-06 4.34204e-05 5.6623e-05
69 1 11.0581 4.42352 3.26127 -7.00625e-06 5.00802e-06 2.30456e-05 2.46022e-05
70 1 0.532355 4.53741 7.17766 2.77045e-05 -6.74008e-05 -8.48944e-06 7.33653e-05
71 1 4.34879 7.76811 6.87102 1.52875e-05 -7.10476e-06 2.49548e-05 3.01152e-05
72 1 4.16711 8.75118 4.48998 -9.97279e-06 5.43369e-05 -5.19311e-05 7.58208e-05
73 1 3.04509 7.37449 2.62129 8.04627e-06 8.63997e-06 -2.02334e-05 2.34261e-05
74 1 5.47809 8.94388 0.226898 -4.85328e-05 -5.30816e-06 -1.68737e-05 5.16559e-05
75 1 5.05113 0.699702 7.70629 1.00949e-05 -2.17523e-05 3.27696e-05 4.06068e-05
76 1 3.87069 0.656285 11.9351 1.92615e-06 3.33142e-05 -4.22928e-05 5.38723e-05
77 1 2.52995 1.52637 1.6361 -5.86876e-06 -2.57193e-05 3.21751e-05 4.16073e-05
78 1 3.52761 2.90249 3.39657 -4.02525e-05 -3.28224e-05 5.84204e-05 7.81698e-05
79 1 2.59045 1.3075 5.27791 6.63078e-05 -2.0142e-06 2.99017e-05 7.2766e-05
80 1 6.82756 3.60791 7.48946 1.29245e-05 6.80807e-05 -3.50091e-06 6.93851e-05
81 1 1.03129 12.6516 3.85462 9.111e-05 -5.21204e-05 -0.000131855 0.000168533
82 1 3.73872 1.69867 9.57752 4.77716e-05 -1.61197e-05 1.24281e-05 5.19271e-05
83 1 3.48753 4.0199 1.11562 2.25693e-05 9.88676e-06 4.25774e-06 2.5005e-05
84 1 4.51322 4.16974 5.20129 -8.70906e-05 2.06468e-05 -3.91551e-05 9.76944e-05
85 1 5.37423 5.5284 6.95378 4.77324e-05 7.3558e-05 1.2976e-05 8.86427e-05
86 1 4.82568 4.17573 9.01697 3.3146e-05 4.66094e-05 -6.66016e-06 5.758e-05
87 1 5.87197 5.49691 10.9833 3.67486e-05 3.95066e-05 2.46617e-05 5.93248e-05
88 1 1.97587 5.9702 0.748246 3.84159e-05 -2.4252e-05 6.86776e-06 4.59468e-05
89 1 4.83794 3.11106 11.4162 4.01473e-05 3.78143e-06 2.64607e-05 4.82315e-05
90 1 0.216643 10.1535 4.25654 -1.24893e-05 3.0879e-05 -7.78755e-06 3.42073e-05
91 1 10.3845 12.3552 12.1569 9.90968e-06 5.295e-05 -2.20731e-06 5.39145e-05
92 1 0.362269 8.12093 9.0138 1.96242e-05 -5.38103e-05 5.97761e-05 8.27879e-05
93 1 1.37413 0.148264 11.9403 3.52083e-05 -1.05293e-05 8.73571e-06 3.7773e-05
94 1 1.05828 2.40917 3.549 6.7113e-07 -2.8293e-05 2.9211e-05 4.06722e-05
95 1 1.1837 2.2359 7.27198 -3.90083e-05 2.32557e-05 3.31005e-05 5.61972e-05
96 1 3.75823 2.66568 7.13228 -3.42658e-05 4.13112e-05 9.47415e-06 5.45024e-05
97 1 1.23375 1.2898 9.62426 4.62314e-05 1.60178e-05 3.60028e-05 6.07463e-05
98 1 2.38093 2.58212 11.5244 2.65088e-05 -2.74141e-06 -2.29764e-05 3.51873e-05
99 1 1.03953 3.50974 1.27873 2.62849e-05 -1.01199e-05 -4.18521e-06 2.84749e-05
100 1 2.05306 3.72295 5.31367 -1.69482e-05 -1.79795e-05 1.70759e-05 3.00348e-05
101 1 2.95742 4.98066 7.12064 -3.08046e-05 -5.40405e-05 -4.74733e-05 7.82497e-05
102 1 2.30302 3.61377 9.13061 2.98461e-05 6.08313e-05 3.04581e-07 6.77594e-05
103 1 3.35017 5.08486 10.9717 2.48137e-05 1.36394e-05 2.14634e-06 2.83965e-05
104 1 0.778403 5.84102 5.09035 -2.71757e-05 -3.0497e-05 3.98303e-05 5.7053e-05
105 1 1.17183 5.78197 9.02297 5.22876e-06 4.54551e-05 2.04912e-05 5.01338e-05
106 1 2.00955 7.22057 10.7091 -5.50925e-05 -3.06083e-05 5.44286e-06 6.32588e-05
107 1 0.453289 7.86711 0.293588 -3.77705e-05 -2.36325e-05 -2.54361e-05 5.1304e-05
108 1 2.13043 4.94636 3.10124 -5.89471e-06 -2.73716e-05 7.19157e-05 7.7174e-05
109 1 10.4612 8.77162 2.42542 -2.21892e-05 3.30894e-06 -3.58786e-05 4.23152e-05
110 1 3.25502 6.32545 5.00431 6.93313e-06 -2.50694e-05 -3.08885e-05 4.03812e-05
111 1 4.55862 7.59267 10.6681 -3.72126e-05 -9.18869e-06 4.5825e-06 3.86032e-05
112 1 5.94288 2.23935 5.75849 -2.58625e-05 2.41341e-05 -7.79575e-06 3.62229e-05
113 1 9.51585 4.25765 7.68119 9.97576e-06 -6.79889e-05 -9.86768e-06 6.94217e-05
114 1 6.20793 2.18672 9.53277 1.16071e-05 -1.5897e-06 3.15018e-05 3.36097e-05
115 1 7.33504 3.51116 11.4439 2.41812e-05 8.29937e-06 -5.94661e-07 2.55727e-05
116 1 5.9648 4.46782 1.08884 -1.69529e-06 4.14833e-05 1.19417e-05 4.32012e-05
117 1 7.02305 4.69364 5.16805 5.57081e-06 6.04069e-07 1.18383e-05 1.30975e-05
118 1 6.04041 3.3517 3.37196 -5.77527e-05 5.6874e-05 7.46058e-05 0.000110164
119 1 7.92055 5.98062 6.99098 -7.39478e-07 4.0524e-05 -1.56429e-05 4.34447e-05
120 1 8.39562 6.09368 11.1374 3.186e-06 2.48336e-05 5.99475e-05 6.49659e-05
121 1 4.43467 6.43456 0.676011 -1.4875e-05 7.68161e-07 5.66802e-05 5.86046e-05
122 1 4.58957 5.40428 3.00896 2.32208e-07 4.15405e-06 4.55723e-05 4.57618e-05
123 1 5.7103 6.81726 4.87215 -1.07583e-05 6.19993e-05 -3.04273e-05 6.98962e-05
124 1 6.23926 6.70835 8.80516 3.07158e-05 -0.000112038 -6.09795e-05 0.000131204
125 1 7.07114 8.05434 10.5838 -9.17527e-06 -5.61407e-06 2.99735e-05 3.18452e-05
126 1 7.68031 4.77534 9.32711 7.71546e-05 -9.62562e-06 -4.18672e-05 8.83082e-05
127 1 5.01004 2.05057 1.53066 -2.66316e-06 -6.62733e-05 -1.04553e-05 6.71458e-05
128 1 6.36478 1.14683 11.8819 1.15625e-05 1.67603e-06 -4.53127e-05 4.67947e-05
129 1 7.49248 1.22886 7.63196 -7.56968e-06 -4.47915e-05 -3.81629e-05 5.93295e-05
130 1 2.97308 8.44934 0.288627 -3.87027e-05 4.10529e-05 -4.13467e-06 5.65714e-05
131 1 0.5892 6.86257 2.71027 -2.10788e-05 2.66277e-05 1.45557e-05 3.69488e-05
132 1 1.71512 8.24594 4.58594 -4.91804e-05 5.05104e-05 3.72959e-05 7.97559e-05
133 1 1.87402 7.20643 7.0236 -2.20227e-05 7.51163e-05 2.65774e-05 8.26669e-05
134 1 2.85645 8.77742 8.86207 -1.70178e-05 -1.76209e-06 3.17715e-05 3.60852e-05
135 1 2.97147 10.8881 0.0629826 8.04102e-05 -7.41932e-05 -0.000186142 0.000215915
136 1 1.47824 9.32713 2.13566 -4.47534e-06 1.55341e-06 -1.77533e-05 1.83744e-05
137 1 2.65081 10.7059 4.07445 -3.49726e-05 -2.93248e-05 -6.86565e-07 4.56454e-05
138 1 0.391195 9.10485 6.62515 6.87605e-07 -3.11109e-06 -2.67496e-05 2.69387e-05
139 1 1.38513 10.7595 8.40894 -5.89169e-05 3.27143e-05 1.51892e-05 6.90807e-05
140 1 1.24856 9.7726 10.8018 4.39145e-05 -2.10722e-05 3.36726e-05 5.92145e-05
141 1 1.98609 11.7984 1.92183 -0.000272793 -1.54485e-07 0.000108551 0.000293597
142 1 1.3596 11.5726 6.08129 3.57441e-06 -2.63248e-05 4.32044e-05 5.07188e-05
143 1 10.304 0.556851 9.8303 4.00484e-06 2.40253e-05 -4.03773e-05 4.71549e-05
144 1 4.91326 0.949396 3.99483 -1.17656e-05 -3.05324e-05 -1.44497e-05 3.57695e-05
145 1 3.65867 6.40434 8.84686 3.24675e-05 6.18027e-05 3.14768e-05 7.65801e-05
146 1 9.01247 11.9993 8.07846 -4.50474e-06 7.36274e-05 -9.99128e-06 7.44386e-05
