ITEM: TIMESTEP
0
ITEM: NUMBER OF ATOMS
119
ITEM: BOX BOUNDS pp pp pp
0.0000000000000000e+00 1.1436527999999999e+01
0.0000000000000000e+00 1.1745825000000000e+01
0.0000000000000000e+00 1.1261291999999999e+01
ITEM: ATOMS id type x y z fx fy fz v_fmag
1 1 0.608685 2.73461 0.551586 -5.94221e-05 -7.74588e-06 1.56077e-05 6.1924e-05
2 1 7.44243 8.79093 7.71406 -9.69397e-06 -8.34763e-05 8.42382e-05 0.000118989
3 1 8.54705 9.08578 5.59313 1.49378e-05 -2.55068e-05 -4.92514e-05 5.74407e-05
4 1 7.01282 8.82416 3.54211 2.98221e-05 -3.80326e-05 2.3928e-06 4.83897e-05
5 1 9.35933 11.4254 1.84913 -6.54059e-07 1.44314e-05 -2.5942e-06 1.46773e-05
6 1 6.56017 5.95463 11.002 2.33916e-05 -2.24817e-05 3.99194e-06 3.26883e-05
7 1 9.1808 7.40987 8.60612 -1.99987e-05 2.41621e-05 -3.1484e-05 4.44409e-05
8 1 8.24595 5.73028 6.62587 1.00696e-05 7.54745e-06 1.29715e-05 1.80726e-05
9 1 8.8095 7.12422 4.09936 -1.21117e-05 1.48895e-05 -2.87744e-05 3.45884e-05
10 1 6.89821 5.45212 4.33432 3.37331e-05 3.83959e-05 3.83257e-06 5.12529e-05
11 1 8.69066 8.46878 1.57211 1.56489e-05 -7.40885e-06 -3.38144e-05 3.79893e-05
12 1 8.22685 4.88715 9.19787 3.92248e-05 2.30534e-05 2.08992e-05 5.00682e-05
13 1 7.26679 3.35845 7.35419 -1.50238e-05 3.29428e-05 -7.04993e-05 7.92533e-05
14 1 8.14993 10.8167 8.85403 1.08545e-06 1.95853e-05 -3.92519e-06 2.00043e-05
15 1 8.5879 3.6859 5.06795 1.48696e-05 1.6527e-05 -3.34558e-06 2.2482e-05
16 1 7.82459 6.08599 2.04492 3.09571e-05 -5.91574e-06 7.55451e-06 3.241e-05
17 1 7.32481 2.45349 9.92937 -3.27739e-05 -4.6529e-05 3.78293e-05 6.83384e-05
18 1 6.18164 0.896052 8.19588 -4.08315e-05 3.60035e-05 -1.45536e-05 5.63495e-05
19 1 7.62438 1.34822 5.77695 -7.45244e-06 1.98753e-05 -1.16874e-05 2.42315e-05
20 1 6.35814 1.2313 3.53952 3.68564e-05 5.05826e-05 9.58635e-06 6.33158e-05
21 1 8.18412 4.13037 0.429087 -7.60303e-06 1.88269e-05 -5.11186e-05 5.50033e-05
22 1 4.05194 11.7269 9.70691 -2.08621e-05 -3.12372e-06 1.24041e-05 2.44714e-05
23 1 4.30965 10.7372 7.42324 3.69695e-05 -6.72086e-06 6.24218e-05 7.28588e-05
24 1 6.36096 10.9288 2.08478 -1.2932e-05 3.93168e-05 5.64629e-06 4.17723e-05
25 1 4.57478 0.899328 1.13598 -9.18911e-06 3.75491e-06 -1.80024e-05 2.05578e-05
26 1 4.92495 7.72232 10.1555 1.9671e-06 2.83998e-05 2.25731e-05 3.63313e-05
27 1 5.83757 9.99686 9.27515 -3.77932e-05 1.5467e-05 -3.63214e-05 5.46516e-05
28 1 7.18468 3.5344 2.74088 -4.70635e-05 9.74226e-06 -1.92431e-05 5.17705e-05
29 1 4.96735 8.334 7.55523 -2.76226e-05 -1.77751e-05 -2.57915e-05 4.17632e-05
30 1 7.38652 8.26609 10.1989 -3.24566e-05 -6.44585e-05 -2.06101e-05 7.5054e-05
31 1 7.99914 11.108 4.14975 -1.19808e-06 9.08698e-06 2.05453e-05 2.2497e-05
32 1 9.26182 11.2921 6.54771 1.81196e-05 -1.21895e-05 2.11958e-05 3.0433e-05
33 1 10.5458 11.6279 4.35625 -6.22627e-06 4.07881e-06 1.83691e-06 7.66664e-06
34 1 0.458271 11.101 2.26302 -3.31525e-05 1.73786e-05 1.69462e-06 3.74697e-05
35 1 9.76556 9.15818 10.4556 8.33085e-05 2.55892e-05 2.76077e-05 9.14183e-05
36 1 10.6963 10.4381 8.48152 -2.18813e-07 -3.3045e-05 1.34892e-05 3.56928e-05
37 1 10.2117 7.21272 6.28566 1.97634e-06 -9.23505e-06 -4.22747e-05 4.33168e-05
38 1 10.9707 9.54175 6.05764 3.82486e-05 -1.60458e-05 2.95558e-05 5.0931e-05
39 1 9.89795 9.44413 3.51923 -3.92382e-05 4.37066e-05 1.57404e-05 6.08085e-05
40 1 8.98842 6.58714 11.032 4.20784e-05 -4.42018e-05 2.45201e-05 6.57694e-05
41 1 0.180475 8.0188 8.3248 -9.81856e-06 1.86719e-05 -3.35985e-05 3.96724e-05
42 1 9.86021 3.72935 7.38738 3.26692e-05 -6.64617e-07 3.88553e-05 5.07686e-05
43 1 0.0500578 7.59608 3.83793 1.58466e-05 8.1608e-05 3.67776e-05 9.09043e-05
44 1 7.34292 1.46959 1.23942 3.16217e-06 -1.22316e-05 -1.16205e-06 1.26871e-05
45 1 10.2599 6.49771 1.99808 -4.62127e-05 5.88875e-06 -2.87443e-05 5.47406e-05
46 1 10.5871 5.49409 9.00851 -5.48028e-05 1.44239e-05 -2.57976e-05 6.22648e-05
47 1 10.1832 1.81447 5.86084 2.34638e-05 2.47108e-05 -1.87376e-05 3.8888e-05
48 1 10.4724 5.37363 4.56892 2.6043e-05 -1.63491e-05 -5.95869e-05 6.70532e-05
49 1 9.54602 4.09723 2.65547 3.14602e-05 6.26466e-06 9.28249e-06 3.33939e-05
50 1 10.5986 4.71905 0.230013 -2.22099e-05 -5.21743e-05 -6.83596e-05 8.88171e-05
51 1 9.72823 2.99092 9.88352 -1.03544e-06 -4.42951e-05 -9.35256e-06 4.52835e-05
52 1 8.74429 1.4433 8.07239 -7.12315e-05 -4.22373e-05 -1.27538e-05 8.37888e-05
53 1 11.2342 2.00656 2.82737 -8.31808e-05 3.99094e-05 -9.98803e-05 0.00013597
54 1 8.85321 1.68157 3.48668 4.24449e-05 -2.32037e-05 -1.00894e-05 4.94144e-05
55 1 9.67379 2.17969 0.994897 6.3432e-05 -2.31129e-05 5.45026e-05 8.67662e-05
56 1 6.31238 0.281869 10.6444 1.19815e-05 -3.00525e-05 1.41735e-05 3.53214e-05
57 1 6.72367 10.7852 6.51281 3.23952e-05 2.12277e-05 7.26777e-05 8.23536e-05
58 1 11.3954 7.0882 10.7602 -1.53187e-05 -3.01375e-05 2.18012e-05 4.02271e-05
59 1 9.04747 0.554982 10.5321 -1.82479e-05 -6.21228e-05 -4.08248e-05 7.65434e-05
60 1 5.3483 10.8031 4.44285 -2.58886e-05 -6.92503e-05 -6.65622e-06 7.42303e-05
61 1 7.76411 10.3027 0.201815 -9.70319e-06 3.14247e-05 1.07142e-05 3.45898e-05
62 1 1.6975 5.51768 4.48369 1.21132e-05 3.88833e-05 5.93009e-07 4.07307e-05
63 1 3.94264 7.3073 1.27523 4.69123e-05 -4.90763e-05 -6.74096e-05 9.56729e-05
64 1 3.04307 3.76833 9.17371 -1.74437e-05 -1.0158e-05 -1.61004e-05 2.58204e-05
65 1 1.01421 2.67969 7.16935 8.33194e-06 5.39417e-06 5.98907e-06 1.15926e-05
66 1 4.12422 4.71624 4.50314 -4.14633e-07 2.37335e-05 -4.98564e-05 5.52188e-05
67 1 2.30612 3.13055 3.25673 1.37067e-05 -3.32263e-05 -2.55882e-05 4.41205e-05
68 1 3.04694 5.22999 2.24009 3.38305e-05 2.96851e-05 3.09746e-05 5.46364e-05
69 1 2.13283 1.62391 10.2148 -2.07439e-05 -6.86159e-05 -2.27051e-05 7.51929e-05
70 1 11.1246 1.21383 8.78614 -5.72746e-05 -1.73778e-05 -2.29509e-05 6.41023e-05
71 1 2.99919 2.51929 5.55954 -4.98406e-05 8.15203e-06 9.16361e-06 5.13275e-05
72 1 2.08382 1.21262 1.76774 -5.19898e-06 2.79043e-05 3.33541e-07 2.83864e-05
73 1 3.23846 3.14915 0.646431 3.5371e-07 -4.59697e-05 5.50373e-08 4.59711e-05
74 1 3.74881 6.74984 5.90602 -1.8198e-05 3.12905e-05 4.32804e-05 5.64221e-05
75 1 2.95488 11.4972 5.55976 -6.63833e-05 9.59484e-05 -0.000137575 0.000180387
76 1 11.1372 8.8877 1.37775 5.01093e-05 2.46281e-05 -1.31977e-05 5.73731e-05
77 1 0.0148756 0.194356 11.1654 -4.41081e-05 -2.93589e-06 -2.06224e-05 4.87794e-05
78 1 0.836636 9.45672 10.4153 -3.33013e-05 -2.11734e-05 4.68165e-05 6.12297e-05
79 1 1.31488 7.58664 5.925 4.45553e-06 1.61938e-05 -2.9961e-05 3.43475e-05
80 1 2.22117 9.08235 1.39352 -1.24051e-05 -2.52721e-06 -3.99349e-05 4.18936e-05
81 1 1.57749 5.77415 8.84479 -4.11756e-05 -3.52882e-05 -4.87885e-06 5.44472e-05
82 1 0.328963 5.26551 6.73402 -3.33728e-06 3.21521e-05 -1.93406e-05 3.7669e-05
83 1 1.2631 6.85191 1.65735 -2.43276e-06 5.1709e-06 -2.69086e-06 6.31643e-06
84 1 0.605063 3.52979 9.42444 1.68945e-05 3.13479e-05 2.64377e-05 4.43517e-05
85 1 0.417919 3.35361 4.87599 -1.54752e-05 -7.81163e-07 5.26831e-05 5.49145e-05
86 1 0.510163 4.5713 2.41572 -2.7537e-05 3.09237e-05 -1.42692e-05 4.37969e-05
87 1 1.36635 0.935349 4.27247 9.43345e-05 -7.69105e-05 7.69745e-05 0.000144011
88 1 1.27406 9.84116 4.36843 -9.94095e-06 2.64415e-05 3.26303e-05 4.31592e-05
89 1 4.59461 9.18723 2.74635 3.2339e-05 2.50064e-05 3.34843e-05 5.28425e-05
90 1 2.74452 4.65434 6.77522 -4.46033e-05 -3.81134e-06 -9.97727e-06 4.58642e-05
91 1 1.64376 5.01147 11.2568 4.2351e-05 -3.04498e-05 -3.5359e-05 6.30163e-05
92 1 4.11659 5.329 10.964 -1.39848e-06 2.06114e-05 3.41286e-05 3.98941e-05
93 1 6.61044 6.60341 8.4421 3.80495e-05 -2.21522e-05 2.87697e-05 5.25945e-05
94 1 5.66217 5.24096 6.56075 2.73821e-05 3.11173e-05 -5.77815e-05 7.11109e-05
95 1 6.50659 7.54768 5.73923 1.17495e-05 -3.6152e-05 -2.51085e-05 4.55572e-05
96 1 5.05222 7.0303 3.75306 -7.98536e-06 -1.20846e-05 -1.24749e-05 1.91161e-05
97 1 6.29022 8.06204 1.21482 8.94418e-07 1.2658e-05 2.98163e-05 3.24043e-05
98 1 5.78814 4.32887 9.25084 3.07828e-05 -9.15166e-06 5.47692e-05 6.34902e-05
99 1 4.73063 3.05693 7.38944 -1.11684e-05 -1.2505e-05 -5.83802e-05 6.074e-05
100 1 5.98375 3.18364 5.06117 3.7898e-05 1.0617e-05 5.85185e-05 7.05222e-05
101 1 4.75404 3.12978 2.67914 5.92851e-05 5.41274e-05 -4.69728e-05 9.30105e-05
102 1 5.50093 5.40503 1.98518 -4.25226e-05 3.21531e-05 1.06073e-05 5.43554e-05
103 1 4.73025 2.21014 9.93335 1.15439e-05 4.01572e-06 -9.03258e-06 1.51978e-05
104 1 4.14494 5.95594 8.46382 -4.79801e-05 3.88144e-05 2.57941e-05 6.68878e-05
105 1 3.0349 1.25171 7.76272 4.43933e-05 -1.10394e-06 3.70816e-05 5.78536e-05
106 1 3.91551 1.15172 3.70712 -5.54518e-05 -4.51289e-05 5.38044e-05 8.94787e-05
107 1 5.812 3.43221 0.472745 5.48551e-06 8.32304e-06 3.2449e-05 3.39455e-05
108 1 1.58304 11.3324 8.95696 9.05157e-06 1.08674e-05 1.2727e-05 1.90265e-05
109 1 1.84385 9.82425 7.05086 2.89239e-05 -3.90968e-05 8.84405e-05 0.00010093
110 1 2.94651 10.8992 2.88716 2.95082e-05 5.14306e-05 5.03054e-05 7.77591e-05
111 1 2.43867 11.1551 0.197441 -4.22556e-05 -2.21417e-05 1.47707e-05 4.99396e-05
112 1 2.43192 7.37547 10.5665 5.76857e-05 -2.65769e-06 2.32758e-05 6.22613e-05
113 1 3.23881 9.48448 9.51051 -1.72762e-05 -5.46187e-05 -5.45127e-05 7.90778e-05
114 1 2.63219 7.74807 7.96508 3.07689e-06 5.23967e-05 -1.34866e-05 5.41919e-05
115 1 3.73884 9.1274 5.35382 -1.23696e-05 -4.22888e-05 -8.98883e-06 4.49684e-05
116 1 2.62522 7.70846 3.59062 3.43685e-05 -3.95333e-05 3.24028e-05 6.15956e-05
117 1 4.71995 9.96458 0.338962 -1.48395e-05 1.00275e-06 4.00685e-05 4.27399e-05
118 1 5.08912 1.02141 5.9695 4.05168e-06 7.02689e-05 1.57018e-05 7.21158e-05
119 1 0.546674 0.171599 6.58468 8.20456e-06 -2.20926e-05 -2.17762e-05 3.20874e-05
