ITEM: TIMESTEP
0
ITEM: NUMBER OF ATOMS
137
ITEM: BOX BOUNDS pp pp pp
0.0000000000000000e+00 1.1464695000000001e+01
0.0000000000000000e+00 1.1317634999999999e+01
0.0000000000000000e+00 1.1648808000000001e+01
ITEM: ATOMS id type x y z fx fy fz v_fmag
1 1 11.4545 1.81968 2.77943 -1.56425e-05 -1.05846e-05 2.94451e-05 3.49819e-05
2 1 8.50608 7.81116 4.25269 1.24016e-05 -4.23243e-05 1.23936e-05 4.58121e-05
3 1 6.93132 6.18161 3.31307 3.31054e-05 1.10991e-05 -3.65414e-05 5.05414e-05
4 1 8.33306 7.12781 1.66593 4.27267e-06 -5.95115e-06 1.28077e-05 1.47549e-05
5 1 6.81991 5.54626 0.504612 -8.70388e-05 1.05331e-05 2.51801e-05 9.1218e-05
6 1 6.87621 4.57761 9.45644 -1.96689e-06 -5.81787e-05 -2.94504e-06 5.82864e-05
7 1 8.30081 5.55447 7.72585 1.11209e-05 -7.10947e-05 -2.52786e-05 7.62701e-05
8 1 6.79366 3.97982 6.55124 3.79372e-05 2.79029e-05 -4.31254e-05 6.38561e-05
9 1 8.19242 4.92351 4.90462 7.67298e-05 -4.88092e-05 -1.8817e-05 9.28649e-05
10 1 8.02809 4.27071 2.27956 1.0611e-05 1.75936e-05 5.62719e-05 5.99054e-05
11 1 7.89471 3.50396 11.5053 -4.82651e-05 -1.37655e-06 -3.2051e-05 5.79541e-05
12 1 6.91246 2.1166 9.7957 -9.87696e-05 8.84584e-05 -1.15568e-05 0.000133093
13 1 8.39338 3.09787 8.07266 -2.5258e-05 -2.7971e-06 -4.36317e-05 5.04928e-05
14 1 8.24804 2.31876 5.51814 2.88732e-05 -2.20423e-05 -2.23458e-05 4.26481e-05
15 1 9.70227 3.3349 3.80272 -7.54335e-05 1.22383e-05 1.02984e-05 7.71106e-05
16 1 7.09423 6.8285 5.94605 7.78025e-05 4.60411e-05 1.37593e-05 9.14457e-05
17 1 6.48319 2.51684 1.55797 -4.13242e-05 1.95697e-05 5.52325e-05 7.17028e-05
18 1 8.88156 0.826325 8.34075 9.58972e-05 0.000100386 -0.000145555 0.000201146
19 1 6.72637 0.589054 4.72135 4.95906e-05 -2.24103e-05 -1.08762e-05 5.54954e-05
20 1 8.17499 1.61343 3.00412 2.93167e-05 -1.45991e-05 -3.97074e-05 5.14711e-05
21 1 3.95308 10.5354 10.761 1.54813e-05 9.2992e-06 -1.86532e-05 2.59632e-05
22 1 3.84321 9.86346 8.1555 9.15221e-06 6.48032e-06 -5.48512e-05 5.59859e-05
23 1 5.28201 10.883 6.43931 7.83752e-05 5.36984e-05 -3.18682e-05 0.000100209
24 1 3.66643 9.27636 5.44507 -1.16262e-05 -3.43611e-05 2.1893e-05 4.23693e-05
25 1 5.09221 10.2786 3.75861 -4.34604e-05 2.21284e-05 3.89574e-06 4.89249e-05
26 1 4.90861 9.34781 1.463 -6.50595e-05 -9.24929e-05 0.000134128 0.000175437
27 1 3.96141 0.132991 1.65305 1.50462e-05 1.0618e-05 6.3462e-06 1.94783e-05
28 1 6.2565 10.2824 11.5146 7.2216e-05 0.000118267 -0.000105872 0.000174388
29 1 4.03854 7.42489 8.64726 3.88002e-05 -5.10105e-06 -3.29345e-05 5.11484e-05
30 1 5.49062 8.45251 6.9391 5.01136e-05 6.26597e-05 1.05649e-05 8.09273e-05
31 1 3.96188 6.74459 6.1277 5.36715e-05 -6.22109e-05 -2.8748e-05 8.70476e-05
32 1 7.57121 11.2133 9.92766 -5.28155e-05 -0.000158107 0.000156744 0.000228814
33 1 7.22775 7.5946 8.37012 -4.35055e-05 -3.40899e-05 1.86627e-06 5.53023e-05
34 1 5.80628 6.60485 10.0698 -2.00297e-05 1.77144e-05 4.20738e-07 2.67426e-05
35 1 8.31839 9.79784 0.981542 1.01018e-05 3.9143e-05 -2.75273e-05 4.89078e-05
36 1 9.67958 9.97122 8.34249 8.38707e-06 -5.80088e-05 4.55663e-05 7.42405e-05
37 1 8.64073 8.58238 6.66899 -9.2099e-06 -1.18288e-05 -1.11912e-05 1.87079e-05
38 1 10.0456 9.56656 4.96665 5.78357e-06 2.48698e-05 2.07279e-05 3.28877e-05
39 1 9.90179 8.78758 2.55771 2.28551e-05 -5.18053e-05 -6.32917e-05 8.49234e-05
40 1 9.83547 0.209359 1.79077 0.000148638 2.97777e-05 -0.00010031 0.000181775
41 1 9.7154 8.06211 0.0179772 -1.11508e-05 -3.01935e-05 -1.19902e-07 3.2187e-05
42 1 8.24487 6.52305 10.4255 9.03579e-06 -3.90027e-05 4.98296e-05 6.39206e-05
43 1 9.66874 7.50144 8.68252 2.45409e-05 -5.02202e-06 3.41255e-05 4.23323e-05
44 1 9.72734 6.53204 6.00775 -1.92553e-06 -6.46577e-05 2.76467e-05 7.03467e-05
45 1 11.1541 7.5145 4.29427 3.20174e-05 9.02311e-07 -4.43502e-05 5.47071e-05
46 1 9.6053 5.88138 3.25289 1.61351e-05 -4.92919e-05 -3.75066e-05 6.40061e-05
47 1 11.0267 6.85424 1.59109 6.20362e-05 6.63303e-06 3.90278e-05 7.35911e-05
48 1 9.44704 5.25988 0.583481 1.7652e-05 -4.8447e-06 9.30879e-06 2.05357e-05
49 1 9.31464 4.49355 9.80539 -3.34162e-05 3.73161e-05 6.42668e-05 8.14823e-05
50 1 10.7419 5.48302 8.10722 -1.21964e-05 2.04676e-05 -1.76825e-05 2.96706e-05
51 1 9.86506 4.07285 6.36931 -2.12535e-05 2.89436e-05 2.83966e-05 4.578e-05
52 1 11.3284 5.05086 4.67491 -4.02988e-05 -2.01177e-06 1.47923e-06 4.03761e-05
53 1 6.86744 8.77438 2.71258 -1.02527e-05 -2.63404e-05 -6.08915e-06 2.89139e-05
54 1 8.39013 10.5032 3.50876 1.95226e-05 1.86467e-05 -1.44767e-05 3.06334e-05
55 1 6.94114 9.47854 5.22559 2.78311e-05 5.44639e-06 -2.21097e-05 3.59593e-05
56 1 7.15414 10.1151 7.83194 1.44686e-05 -3.84456e-05 -5.49841e-05 6.86342e-05
57 1 5.70338 9.08903 9.52439 6.78729e-05 -2.40575e-05 2.83363e-05 7.7385e-05
58 1 6.52379 11.2832 2.07643 -7.4394e-05 8.04326e-06 5.43545e-05 9.24855e-05
59 1 5.41332 7.75917 4.42529 1.55646e-05 2.23847e-05 1.0258e-07 2.72643e-05
60 1 10.028 0.817445 4.46506 3.19813e-05 -1.7246e-05 -4.84806e-05 6.05855e-05
61 1 7.96323 0.978099 0.392585 3.12304e-05 -3.40076e-05 4.41125e-06 4.63823e-05
62 1 10.2235 1.75979 6.74691 -2.64355e-05 -4.89992e-05 8.47376e-05 0.000101391
63 1 10.8703 3.0323 8.65194 -6.1078e-05 -1.02653e-05 1.21106e-05 6.31076e-05
64 1 9.41202 2.0021 10.3501 -2.59857e-05 -2.59677e-05 2.35844e-05 4.36555e-05
65 1 9.62525 2.63923 1.28982 3.34163e-05 4.66465e-06 4.51775e-06 3.40414e-05
66 1 11.1542 4.34902 2.09903 1.98773e-05 6.44107e-06 1.11139e-05 2.36667e-05
67 1 8.59501 11.1294 6.14683 5.07833e-05 1.13527e-05 -7.05744e-06 5.25132e-05
68 1 8.19811 8.98255 10.0856 -8.30788e-05 6.11477e-05 3.34698e-05 0.00010845
69 1 5.24852 7.02805 1.85661 3.59823e-05 4.08213e-05 -1.5029e-05 5.64533e-05
70 1 4.37819 5.61573 0.118503 -2.8015e-05 -5.68545e-05 8.21943e-06 6.39127e-05
71 1 2.95 4.63233 1.80798 2.06521e-05 1.28574e-05 -1.88651e-05 3.07849e-05
72 1 2.83262 3.83228 11.043 -3.86769e-05 1.46751e-05 -4.35526e-06 4.1596e-05
73 1 1.24438 2.24398 10.0113 1.71856e-05 3.23713e-05 -6.20439e-05 7.20603e-05
74 1 2.67077 3.25135 8.31185 4.22035e-05 -8.87032e-06 1.88367e-05 4.70599e-05
75 1 2.54352 2.58885 5.65313 -3.06995e-05 4.9455e-05 6.73161e-05 8.89928e-05
76 1 3.96665 3.58423 3.93481 7.9796e-06 3.41979e-05 -1.31336e-05 3.74922e-05
77 1 1.41271 2.82393 1.08913 3.4558e-05 -3.53655e-05 -3.42715e-06 4.95653e-05
78 1 2.71423 1.15774 11.532 3.701e-05 -3.04915e-05 -4.11351e-06 4.81289e-05
79 1 2.50929 0.373949 9.08344 3.48835e-05 -4.44607e-05 -3.431e-06 5.66161e-05
80 1 3.86035 1.34079 7.37349 -2.53596e-05 -8.14545e-05 -1.38293e-05 8.64245e-05
81 1 1.14608 0.641059 4.82548 -6.18955e-05 1.251e-05 5.45918e-05 8.34735e-05
82 1 2.5902 1.63189 3.06817 1.90006e-05 3.82307e-05 3.55137e-05 5.55323e-05
83 1 11.169 0.555653 9.12312 -2.9899e-06 3.49458e-05 -3.10247e-05 4.68261e-05
84 1 11.1524 10.9646 6.58419 -6.23532e-05 1.20432e-05 -1.93501e-07 6.35059e-05
85 1 3.78598 6.04874 3.55051 1.65004e-05 -2.80586e-05 1.0519e-05 3.42082e-05
86 1 11.4398 10.546 3.26568 -2.4863e-05 -2.52502e-05 8.3928e-06 3.64168e-05
87 1 11.0737 8.99878 10.0102 -1.32917e-05 1.05181e-05 -4.22796e-05 4.55507e-05
88 1 11.0952 8.48247 6.92785 -7.18418e-05 -4.00172e-05 2.97045e-05 8.74356e-05
89 1 1.1132 8.50754 2.5773 5.48896e-05 2.60731e-05 4.28027e-05 7.43286e-05
90 1 0.985393 7.84497 11.562 -5.09454e-06 -3.63323e-05 -2.95255e-05 4.70929e-05
91 1 10.869 6.25701 10.532 4.05543e-05 2.533e-05 5.04308e-06 4.80801e-05
92 1 0.705962 6.4679 6.41571 1.29664e-05 -1.94194e-05 2.07566e-06 2.34424e-05
93 1 1.32435 6.03849 2.97983 -4.98027e-05 7.86153e-05 2.32488e-05 9.59228e-05
94 1 1.1387 5.36849 0.400143 3.08096e-06 2.77721e-05 -5.87166e-07 2.79486e-05
95 1 11.0771 3.6665 11.2294 5.39792e-07 3.16289e-05 -3.06163e-05 4.40231e-05
96 1 0.865787 4.05346 6.94817 -1.27646e-05 3.37626e-05 3.69836e-05 5.16782e-05
97 1 0.132114 2.70277 5.12846 2.90661e-05 -2.18408e-05 -2.62702e-06 3.64522e-05
98 1 1.53135 3.66033 3.48069 1.05395e-05 -1.21436e-05 2.53348e-05 3.00067e-05
99 1 11.2753 1.23007 0.0740761 -1.98761e-05 5.6626e-05 -6.94329e-05 9.17742e-05
100 1 1.12311 1.57991 7.38121 -1.93984e-06 3.12006e-05 1.82591e-05 3.62027e-05
101 1 11.2726 9.76103 0.854617 1.25366e-05 3.2074e-05 1.33346e-05 3.69285e-05
102 1 2.32551 5.0588 5.24636 3.08419e-05 2.60113e-05 3.92809e-05 5.63099e-05
103 1 2.51305 5.72366 7.82632 2.81913e-05 -2.47036e-05 1.83615e-05 4.17392e-05
104 1 1.06409 4.69575 9.52589 2.81946e-05 3.99722e-05 2.48286e-05 5.48559e-05
105 1 4.25242 4.83924 9.34359 -1.96277e-05 -6.95581e-06 1.65191e-05 2.65802e-05
106 1 5.6743 5.83787 7.64293 -1.12285e-05 3.59621e-06 -7.37473e-06 1.39068e-05
107 1 4.09416 4.24532 6.63048 2.89889e-06 1.93339e-05 -8.29689e-05 8.52411e-05
108 1 5.51642 5.22117 4.96625 -3.26593e-05 3.21218e-05 -4.13564e-06 4.5995e-05
109 1 5.39313 4.56823 2.22131 -7.39768e-05 -4.83898e-05 4.66755e-05 9.99637e-05
110 1 5.45222 3.59872 11.2019 1.13233e-05 4.18959e-05 6.17621e-06 4.38364e-05
111 1 4.061 2.10777 9.85897 -2.20833e-05 2.3316e-06 -4.87168e-05 5.35391e-05
112 1 5.41555 3.04656 8.2002 5.12445e-05 -4.69318e-05 6.98459e-05 9.85243e-05
113 1 5.22664 2.31378 5.66874 1.09711e-05 -1.5431e-05 -9.78791e-06 2.13139e-05
114 1 6.61846 3.2894 3.97274 2.42718e-05 -4.23958e-05 1.47258e-05 5.10233e-05
115 1 4.02481 2.61724 1.30918 -3.48396e-05 4.59268e-05 3.50336e-05 6.74568e-05
116 1 5.43196 1.12678 11.5427 -2.28459e-05 -6.13182e-05 -2.09009e-05 6.86928e-05
117 1 5.37023 0.254604 9.00684 -6.199e-06 -4.25338e-05 2.36428e-05 4.90565e-05
118 1 6.79908 1.29314 7.25292 -6.00066e-06 2.13412e-05 4.25878e-06 2.25741e-05
119 1 3.6881 0.555094 4.96069 -4.0926e-05 1.6128e-05 5.1551e-05 6.77684e-05
120 1 5.07998 1.53328 3.26024 -2.67831e-05 1.19456e-05 -1.84032e-05 3.46224e-05
121 1 1.16029 10.7294 10.7938 2.5981e-05 -3.15919e-05 -1.83208e-05 4.48187e-05
122 1 2.58737 6.3955 10.3499 -4.11141e-05 4.53238e-06 2.669e-06 4.14492e-05
123 1 4.2442 8.0595 11.2238 -2.74753e-05 -2.1718e-06 -4.40667e-05 5.19758e-05
124 1 2.7842 7.04088 1.27907 -3.27014e-05 2.74729e-05 1.12268e-05 4.41609e-05
125 1 3.53032 8.40243 3.08668 1.94807e-05 3.42729e-05 -1.64297e-07 3.94228e-05
126 1 2.12705 7.44218 4.73934 -2.45022e-05 6.29204e-05 1.37722e-05 6.89131e-05
127 1 2.24407 8.27144 7.13623 -1.81885e-05 3.49755e-05 1.74321e-05 4.31043e-05
128 1 6.71835 8.00295 0.155699 4.51804e-05 1.25503e-05 -1.63605e-05 4.96633e-05
129 1 0.824524 7.26267 8.83199 7.5622e-06 -5.83348e-05 9.60252e-07 5.88308e-05
130 1 1.35411 0.19862 1.56963 -2.73424e-05 -1.42991e-05 -4.18585e-05 5.20019e-05
131 1 2.53389 9.51401 0.851244 -7.73445e-05 7.4596e-06 -3.57957e-05 8.5552e-05
132 1 2.50586 10.4568 3.41128 -5.96138e-05 -3.06206e-05 -1.89606e-05 6.96486e-05
133 1 1.06371 9.46691 5.1688 -1.18671e-05 6.30987e-06 -1.55626e-05 2.0563e-05
134 1 2.3123 10.9045 6.65539 -2.91631e-06 -5.04715e-06 2.18693e-05 2.26328e-05
135 1 0.955372 9.9472 8.33976 -3.51799e-05 -6.67328e-06 -4.21674e-05 5.53195e-05
136 1 2.41071 8.85064 9.86542 1.44436e-05 2.30423e-05 1.49315e-05 3.10244e-05
137 1 9.75137 10.8345 10.879 -5.52102e-05 3.57686e-05 -3.17023e-05 7.30246e-05
