ITEM: TIMESTEP
0
ITEM: NUMBER OF ATOMS
133
ITEM: BOX BOUNDS pp pp pp
0.0000000000000000e+00 1.1400361000000000e+01
0.0000000000000000e+00 1.2098903999999999e+01
0.0000000000000000e+00 1.2816801000000000e+01
ITEM: ATOMS id type x y z fx fy fz v_fmag
1 1 0.356148 1.30967 5.11112 3.34321e-05 -2.31161e-05 1.04608e-05 4.19701e-05
2 1 8.56948 10.7148 11.1854 -3.1322e-05 1.31352e-05 -2.59596e-06 3.40638e-05
3 1 6.00025 11.1111 7.35897 1.62264e-05 -2.25783e-05 1.02736e-05 2.96416e-05
4 1 5.61906 10.9477 2.98648 2.69978e-05 2.17218e-05 4.43203e-05 5.62584e-05
5 1 4.75466 9.16814 11.2685 1.10498e-07 -4.48524e-05 9.28351e-06 4.58032e-05
6 1 6.65279 9.87283 9.43563 -1.41807e-05 4.3033e-05 -5.1399e-06 4.55999e-05
7 1 6.98593 8.49678 7.22299 -1.77366e-05 8.46387e-06 3.47501e-05 3.99223e-05
8 1 8.78192 9.21039 4.71913 3.31507e-06 -9.9211e-06 -2.73737e-05 2.93042e-05
9 1 6.66047 8.34087 2.87976 5.4297e-06 5.91368e-06 1.11269e-05 1.37209e-05
10 1 8.63379 8.9647 0.540836 -1.18732e-05 -6.61242e-06 -4.68018e-05 4.8735e-05
11 1 5.75637 6.40757 11.1269 -1.37198e-05 2.05531e-05 2.38908e-05 3.4372e-05
12 1 7.68256 7.1454 9.21423 -3.59042e-05 -9.44737e-06 -7.61943e-06 3.79001e-05
13 1 7.98826 5.78646 7.04585 -1.0703e-06 3.02394e-05 3.86428e-05 4.90798e-05
14 1 7.31805 7.1089 5.00023 -3.45697e-05 1.29312e-05 3.79629e-06 3.71038e-05
15 1 7.60623 5.71057 2.79064 1.00438e-06 -3.59228e-05 2.61786e-05 4.44609e-05
16 1 7.00126 6.95353 0.652928 2.69914e-05 -1.17004e-06 -1.62426e-05 3.15235e-05
17 1 6.75262 3.85877 11.0711 -2.27878e-05 1.4129e-05 1.46483e-06 2.68525e-05
18 1 8.65168 4.55723 9.18705 -1.9136e-05 1.81015e-05 -5.20148e-06 2.68497e-05
19 1 6.15255 5.06613 8.91485 -2.02544e-05 -3.35303e-06 1.78914e-05 2.72321e-05
20 1 8.28265 4.41709 4.87179 4.3922e-05 1.1594e-05 1.12158e-05 4.67906e-05
21 1 5.78985 5.00056 4.63144 3.02813e-06 8.37262e-06 -8.63791e-06 1.2405e-05
22 1 7.95582 4.36754 0.591207 -2.25303e-06 -2.51888e-05 2.35709e-05 3.45708e-05
23 1 7.68683 1.28933 11.0589 -5.05141e-06 -3.95719e-06 -8.2489e-06 1.04509e-05
24 1 7.10985 2.47305 8.8742 -2.21562e-05 9.40474e-06 1.72867e-05 2.9634e-05
25 1 5.02818 1.58281 7.49957 -1.28712e-05 9.90271e-06 5.66274e-06 1.71988e-05
26 1 6.45444 3.69697 6.72674 -4.50611e-07 3.52259e-05 -4.00025e-07 3.52311e-05
27 1 6.76856 2.31648 4.54742 8.11535e-06 3.70893e-05 2.29588e-05 4.43686e-05
28 1 6.09506 3.63444 2.45841 4.5497e-07 9.17919e-06 3.0941e-05 3.22771e-05
29 1 5.67316 0.312357 9.64223 4.0209e-06 -2.34995e-05 -1.60535e-06 2.3895e-05
30 1 7.78107 11.8105 4.61032 1.38603e-05 -5.7528e-05 1.12935e-05 6.02422e-05
31 1 7.0953 0.928098 2.39137 -1.66404e-07 2.03583e-05 5.12001e-05 5.50994e-05
32 1 10.3027 11.2711 4.96378 -2.0376e-05 -7.59569e-06 2.09659e-05 3.02067e-05
33 1 8.09782 11.985 8.91705 -2.85465e-05 -9.41643e-06 -1.96536e-05 3.59143e-05
34 1 8.89862 1.67703 0.574199 9.56714e-06 1.89588e-05 -8.16364e-06 2.27511e-05
35 1 9.8193 7.99432 11.2871 5.15998e-06 -9.92863e-06 1.20252e-05 1.64258e-05
36 1 11.077 2.53893 2.90715 -5.14101e-06 -1.77133e-07 1.83683e-05 1.9075e-05
37 1 9.93218 0.589448 7.05846 -2.42286e-06 -1.79187e-05 -2.11513e-06 1.8205e-05
38 1 0.0269117 1.16413 0.80739 4.02266e-05 5.01335e-06 -1.13926e-05 4.21082e-05
39 1 9.87016 11.207 0.643025 3.68336e-05 5.99987e-05 4.87672e-06 7.05715e-05
40 1 11.0828 10.2148 11.4591 -3.6159e-05 -7.59828e-06 7.56102e-06 3.77144e-05
41 1 8.46695 10.5656 6.83793 -1.61143e-06 -7.17721e-06 -1.74595e-05 1.89458e-05
42 1 8.08233 10.4465 2.50011 -1.87132e-05 1.06189e-05 2.12176e-05 3.02181e-05
43 1 7.2463 8.41507 11.3679 6.09822e-06 1.03601e-05 4.33511e-05 4.49871e-05
44 1 9.13655 9.30889 9.10362 -2.53717e-06 -2.07297e-05 -1.18645e-06 2.09181e-05
45 1 9.44615 7.93686 6.96526 3.12032e-05 2.84722e-05 3.10746e-06 4.23552e-05
46 1 11.2703 8.6513 5.03053 6.26771e-06 -5.90556e-06 2.12401e-05 2.29194e-05
47 1 9.13659 7.75225 2.72108 -3.83919e-05 -2.26342e-06 -3.75678e-05 5.37625e-05
48 1 8.2616 5.90565 11.3352 8.9377e-06 -9.08289e-07 9.12005e-06 1.28017e-05
49 1 5.03193 0.260157 0.906856 9.26268e-05 -6.60224e-06 1.33998e-05 9.38236e-05
50 1 10.1665 6.67009 9.17492 -2.54423e-06 -2.70464e-05 -3.56286e-05 4.48037e-05
51 1 0.221002 7.25473 2.91439 6.73821e-06 -7.75866e-06 -8.98237e-06 1.36486e-05
52 1 10.0923 5.13831 2.81024 8.37999e-06 1.28433e-06 8.47009e-06 1.1984e-05
53 1 9.53787 6.41383 0.632436 2.76225e-05 -2.45337e-05 -1.34333e-06 3.69691e-05
54 1 9.23373 3.31597 11.3439 2.50886e-05 -1.65506e-05 1.08077e-05 3.194e-05
55 1 10.4802 5.28298 7.09975 -5.68745e-05 2.0139e-05 -1.1166e-05 6.13593e-05
56 1 8.9553 3.194 7.02676 -3.00494e-06 1.05486e-05 2.13207e-06 1.11735e-05
57 1 10.7811 3.91832 5.00218 -1.94098e-05 -1.82599e-05 -9.12381e-06 2.81675e-05
58 1 8.57681 3.0444 2.70582 2.77972e-05 2.27244e-05 2.72626e-05 4.50814e-05
59 1 10.4507 3.76668 0.713454 -2.61641e-06 1.17535e-05 -9.02952e-06 1.50507e-05
60 1 10.1735 0.718022 11.3633 -4.6042e-06 -2.20896e-05 6.29583e-06 2.34262e-05
61 1 9.60551 1.9691 9.19709 2.51757e-05 -4.97903e-06 7.29461e-07 2.56737e-05
62 1 7.43177 1.09853 6.72366 -2.95174e-05 -4.9006e-05 -9.11354e-06 5.79303e-05
63 1 9.26708 1.82867 4.88515 8.18004e-06 -5.36331e-05 1.14678e-05 5.54521e-05
64 1 9.60512 0.438869 2.79029 -4.50283e-06 3.11909e-06 -1.44849e-05 1.5486e-05
65 1 9.79442 6.51877 4.90747 -1.68293e-05 4.39263e-06 -2.75695e-06 1.76103e-05
66 1 10.5863 9.89281 2.79761 -8.29288e-06 -5.20905e-06 -1.08392e-05 1.4608e-05
67 1 3.77095 11.7048 11.4064 2.07257e-05 -6.33781e-06 -1.00085e-05 2.38724e-05
68 1 3.15336 11.5353 2.82595 2.29767e-05 -6.88295e-05 9.13818e-05 0.000116688
69 1 10.9749 10.0146 7.18922 8.13193e-06 -1.55601e-05 -5.81473e-06 1.84947e-05
70 1 3.83421 10.1898 4.81571 1.28478e-05 5.33427e-05 -1.56216e-05 5.70486e-05
71 1 1.70973 9.3842 3.14143 -2.07293e-05 1.04053e-05 1.87608e-05 2.98319e-05
72 1 3.62125 10.239 0.7003 -1.51522e-05 -4.27258e-05 -3.49572e-05 5.72459e-05
73 1 0.983045 7.415 11.5511 2.62668e-05 -3.00322e-05 -4.8649e-06 4.01939e-05
74 1 2.07088 9.45477 7.51652 1.00864e-05 2.32148e-05 7.86926e-06 2.65063e-05
75 1 0.548007 7.40146 7.24183 9.96048e-06 2.62086e-06 -3.10463e-06 1.07573e-05
76 1 2.37785 8.11898 5.37418 1.28825e-05 -2.66671e-05 7.41604e-06 3.05301e-05
77 1 2.70617 6.73694 3.24018 -1.77857e-05 1.52871e-05 1.49912e-05 2.78345e-05
78 1 2.14956 8.02964 1.01642 -1.38252e-06 3.31425e-06 1.0101e-05 1.07203e-05
79 1 10.7999 5.39583 11.3931 1.47295e-06 -3.32005e-06 -1.35615e-05 1.40395e-05
80 1 1.24337 6.10772 9.38303 -1.41653e-05 -2.03714e-05 -3.12916e-06 2.50088e-05
81 1 1.57456 4.75913 7.25228 -1.5692e-05 1.25088e-05 -3.45623e-05 3.99657e-05
82 1 3.39139 5.4913 5.41931 -1.59617e-05 1.94067e-05 6.0854e-06 2.5854e-05
83 1 1.18728 4.64453 2.96262 3.91482e-05 9.26334e-06 -3.96696e-05 5.64984e-05
84 1 0.600096 5.87268 0.805482 1.66476e-05 8.86363e-06 -2.83488e-05 3.40494e-05
85 1 0.35566 2.79597 11.474 -2.52202e-05 -3.68963e-06 1.74014e-06 2.5548e-05
86 1 2.23134 3.49249 9.38435 -2.56972e-06 1.3676e-05 -4.55131e-05 4.75928e-05
87 1 0.0474551 2.68314 7.19717 -3.63608e-05 -2.1451e-05 1.13899e-05 4.37262e-05
88 1 1.87176 3.40573 5.08943 1.7798e-05 -1.53835e-05 -5.36253e-05 5.85584e-05
89 1 2.16658 2.04728 2.9226 -1.61101e-06 2.76983e-05 5.71587e-06 2.83278e-05
90 1 1.54737 3.29637 0.818157 3.70798e-05 -2.38711e-07 -3.42853e-05 5.0502e-05
91 1 0.700723 1.44555 9.38458 -1.10083e-05 3.98641e-06 -2.96787e-05 3.19046e-05
92 1 2.83675 0.785227 4.99588 1.38577e-05 1.38146e-05 -1.65325e-05 2.56165e-05
93 1 1.04416 10.6849 0.911696 8.51824e-06 1.66111e-05 -5.97401e-06 1.96005e-05
94 1 1.39732 10.7337 5.28352 1.61427e-05 1.14342e-05 -3.40653e-05 3.93926e-05
95 1 11.0934 8.5052 0.696632 2.57493e-05 -1.75389e-05 -2.53217e-05 4.01476e-05
96 1 0.886527 6.02059 5.10836 -9.22752e-06 1.7779e-05 -4.03869e-05 4.50815e-05
97 1 11.1421 4.04355 9.29346 -1.48398e-05 -2.06189e-05 -4.45994e-06 2.57924e-05
98 1 1.66444 10.9355 9.4888 -1.32556e-05 -3.88218e-05 -4.53538e-05 6.1154e-05
99 1 0.272975 8.76773 9.42047 1.0308e-05 -1.36166e-05 -3.52919e-05 3.9207e-05
100 1 0.685445 12.0033 3.0491 -7.47649e-06 3.28145e-05 1.31097e-05 3.61186e-05
101 1 1.02025 0.0671682 7.31022 -9.49773e-06 4.58142e-06 4.30716e-05 4.43437e-05
102 1 2.15006 9.6758 11.6287 6.73094e-06 1.11676e-05 1.74196e-05 2.17592e-05
103 1 4.11949 10.3349 9.12403 -4.25168e-05 -1.37229e-05 5.37663e-06 4.4999e-05
104 1 4.49588 8.96546 6.92177 -1.47945e-06 -1.3208e-05 1.54834e-05 2.04053e-05
105 1 6.32744 9.72957 5.11728 5.001e-06 1.09318e-05 2.15975e-05 2.47177e-05
106 1 4.1691 8.79574 2.61915 -2.29788e-05 6.15314e-05 1.45484e-06 6.56982e-05
107 1 6.10744 9.59081 0.727435 2.7225e-05 -1.97271e-05 -2.21993e-05 4.02886e-05
108 1 2.78185 8.17788 9.71729 -2.57711e-05 -1.52106e-05 -1.17445e-05 3.21472e-05
109 1 5.19789 7.7409 9.04152 -1.32478e-05 2.01252e-05 6.36416e-06 2.49205e-05
110 1 3.07351 6.85871 7.56794 1.40378e-05 -2.84752e-05 -9.73633e-06 3.32069e-05
111 1 4.81507 7.5875 4.72068 -1.05153e-05 -1.84528e-05 -4.00286e-06 2.16125e-05
112 1 5.12559 6.24842 2.49007 3.85951e-05 -5.74816e-06 1.38201e-05 4.13959e-05
113 1 4.53293 7.52457 0.3508 8.99494e-06 1.45724e-05 9.7059e-06 1.96842e-05
114 1 5.46028 4.8767 0.307227 2.0269e-05 9.3093e-06 -8.62251e-06 2.39133e-05
115 1 1.95801 4.8539 11.5735 -1.67178e-06 -6.22031e-06 9.28e-06 1.12963e-05
116 1 3.48985 11.5797 7.03273 9.56193e-06 3.08795e-05 9.76306e-06 3.37682e-05
117 1 3.74495 5.59162 9.74309 -3.82805e-05 -2.61415e-07 2.34808e-05 4.49089e-05
118 1 5.48851 6.35744 6.83894 -5.83182e-05 1.50543e-05 -4.82075e-05 7.71467e-05
119 1 3.69055 4.14741 3.22546 1.72009e-05 -4.40318e-06 -9.74403e-06 2.02535e-05
120 1 3.07394 5.41656 1.06701 2.83094e-05 8.67486e-06 -2.09947e-06 2.9683e-05
121 1 6.43166 2.33929 0.288945 9.62933e-06 -4.41552e-05 -3.14202e-05 5.50421e-05
122 1 2.89534 2.21872 11.5274 -2.76353e-05 -1.53517e-05 1.45013e-05 3.47803e-05
123 1 4.72601 2.93086 9.73762 -1.57584e-05 1.96252e-05 -2.07251e-06 2.52541e-05
124 1 2.53911 2.14697 7.19077 1.63027e-05 -6.6488e-06 -1.87935e-05 2.57523e-05
125 1 4.37483 2.86779 5.35698 -4.43524e-06 5.20383e-05 -1.66893e-06 5.22537e-05
126 1 4.67602 1.52969 3.12801 8.26631e-06 -9.72542e-06 2.29046e-05 2.62209e-05
127 1 4.02268 2.83471 1.02237 -9.67026e-06 -5.07772e-06 1.75095e-05 2.06369e-05
128 1 3.18272 0.864826 9.26619 2.48881e-05 8.33992e-06 1.24355e-05 2.90451e-05
129 1 5.33536 0.229146 5.2301 2.30453e-05 1.81636e-05 8.76406e-06 3.06237e-05
130 1 2.55261 0.718449 0.779392 -7.52027e-05 -5.62898e-06 -0.000137555 0.000156871
131 1 1.25165 0.182035 11.5493 6.62255e-05 1.80231e-05 0.000128214 0.000145429
132 1 4.07239 4.21698 7.57762 -2.61559e-05 2.56079e-05 7.57524e-06 3.73802e-05
133 1 10.5698 11.4538 9.2562 -1.45237e-05 -1.17446e-05 -1.40194e-05 2.33542e-05
