ITEM: TIMESTEP
0
ITEM: NUMBER OF ATOMS
161
ITEM: BOX BOUNDS pp pp pp
0.0000000000000000e+00 1.1400361000000000e+01
0.0000000000000000e+00 1.2098903999999999e+01
0.0000000000000000e+00 1.2816801000000000e+01
ITEM: ATOMS id type x y z fx fy fz v_fmag
1 1 11.3939 11.6015 9.66569 3.82736e-05 -2.07324e-06 -1.26618e-06 3.83507e-05
2 1 4.71117 0.131433 0.0439802 1.79412e-05 1.80551e-05 1.09501e-05 2.77088e-05
3 1 8.5816 0.205432 5.04289 1.99639e-05 -6.841e-05 -4.76972e-05 8.57526e-05
4 1 10.6116 0.800728 7.66146 4.59031e-05 -9.15068e-06 2.39601e-05 5.25825e-05
5 1 7.72816 0.860273 2.8799 -5.01877e-05 1.09683e-05 -4.15443e-05 6.60684e-05
6 1 9.90772 2.1278 5.70721 5.64937e-06 -7.41531e-05 -2.17727e-05 7.74897e-05
7 1 8.17815 1.08757 7.28127 3.73853e-05 -1.94925e-05 -3.29022e-05 5.34806e-05
8 1 9.25905 3.88104 10.2858 1.91551e-06 -7.93455e-06 4.3988e-05 4.47389e-05
9 1 4.82882 11.1515 10.4978 3.69323e-05 1.41824e-05 6.29541e-05 7.43529e-05
10 1 7.88281 1.95849 9.55155 -4.41178e-06 3.09079e-05 -1.8268e-05 3.6173e-05
11 1 9.79538 4.8245 2.018 -3.97148e-05 8.29194e-06 8.0363e-05 9.00235e-05
12 1 9.09203 3.08746 3.63426 -3.28127e-05 -2.20075e-05 2.62578e-05 4.74392e-05
13 1 8.80466 4.36136 6.06421 -1.85642e-05 -4.35246e-05 -1.74326e-06 4.73504e-05
14 1 7.09807 3.34971 7.6401 9.20707e-06 -2.80596e-06 -2.64716e-05 2.81672e-05
15 1 8.43675 5.265 8.41237 -5.08851e-05 -1.87915e-05 -1.62355e-06 5.42683e-05
16 1 6.80497 4.17021 9.92176 -3.36138e-05 1.8688e-05 -6.26738e-05 7.35332e-05
17 1 7.39256 4.71249 1.62048 -4.20345e-05 -5.96721e-06 3.59714e-05 5.56458e-05
18 1 7.66619 2.74659 11.8556 -2.3082e-05 -6.41838e-06 1.40713e-05 2.77844e-05
19 1 8.62424 6.86712 2.28181 -3.92086e-05 1.61536e-05 3.65965e-05 5.60139e-05
20 1 4.40525 11.557 6.28422 -1.3794e-05 2.02075e-05 -3.11484e-05 3.96086e-05
21 1 5.84483 10.0947 12.4753 2.10339e-05 2.03652e-05 4.84644e-05 5.66212e-05
22 1 5.96977 5.568 8.03527 -1.40876e-05 3.19199e-05 -1.98796e-05 4.01564e-05
23 1 4.31975 4.53385 9.59237 -5.04096e-05 3.54984e-05 -2.60185e-05 6.69196e-05
24 1 6.80965 4.95699 12.152 -2.05488e-05 4.52817e-05 -1.66226e-05 5.24309e-05
25 1 6.15488 6.674 1.86705 1.00968e-05 -3.61207e-05 -1.59505e-05 4.07562e-05
26 1 5.56787 4.86708 3.45896 3.70419e-05 -4.40784e-05 5.58478e-05 8.02121e-05
27 1 6.75389 7.01629 4.35032 -2.73216e-05 -6.50258e-06 1.63139e-05 3.24791e-05
28 1 5.13737 6.871 6.07259 -6.71658e-05 2.53851e-05 -4.76508e-05 8.61757e-05
29 1 6.45557 10.7363 2.02436 1.52457e-07 5.02223e-05 1.48794e-05 5.23803e-05
30 1 6.21967 7.97026 7.96418 3.87523e-05 2.84798e-05 -6.07607e-06 4.84743e-05
31 1 6.12419 7.54177 12.1729 0.000130105 -3.31832e-05 -5.12046e-05 0.000143703
32 1 7.30979 8.68415 1.18171 5.33261e-05 9.08465e-06 -2.45228e-05 5.93934e-05
33 1 5.66285 8.83597 3.36363 -7.77243e-05 -1.00069e-06 -2.63204e-05 8.2066e-05
34 1 7.05385 10.6537 4.39641 2.2681e-05 -2.14408e-05 2.13252e-05 3.78008e-05
35 1 5.45863 9.24095 5.81754 1.82761e-06 5.61786e-06 -3.83276e-05 3.87802e-05
36 1 5.1225 10.1821 8.2006 9.55158e-06 8.17559e-06 -3.71816e-05 3.92498e-05
37 1 5.82323 8.92602 10.2168 8.52559e-05 6.75553e-05 -2.54684e-05 0.000111718
38 1 4.49005 6.93883 9.63057 4.70812e-05 2.26974e-05 -2.62754e-05 5.84997e-05
39 1 8.01141 5.13233 3.92593 -1.94316e-05 -3.73138e-06 1.4714e-05 2.46579e-05
40 1 9.31395 7.37019 4.68121 3.29476e-05 2.35244e-05 -2.42515e-05 4.71919e-05
41 1 7.70047 6.56258 6.48492 2.27056e-05 1.30339e-05 -4.20767e-05 4.95568e-05
42 1 9.24397 6.30459 10.5647 -9.4138e-06 3.68945e-05 3.82182e-05 5.39486e-05
43 1 10.4592 6.58023 0.209791 9.62092e-05 -7.42309e-05 -2.65908e-06 0.000121546
44 1 0.113368 3.11856 4.09334 2.72125e-05 -3.51189e-05 -1.5661e-05 4.71076e-05
45 1 10.4229 5.25255 4.37454 9.86301e-06 2.59103e-07 7.76501e-06 1.25555e-05
46 1 10.117 6.28062 6.74177 -2.11409e-05 -4.28848e-05 1.00405e-05 4.88555e-05
47 1 11.063 7.38249 8.75295 1.74154e-05 -9.64964e-06 -4.54181e-07 1.99153e-05
48 1 10.6839 8.2976 10.9801 5.37679e-05 1.06711e-05 -5.05849e-05 7.45902e-05
49 1 9.53674 3.03309 7.98743 -1.57701e-05 -1.42034e-05 3.21813e-05 3.85496e-05
50 1 0.283751 8.59621 0.620147 9.31586e-05 3.24611e-05 -4.09895e-06 9.87372e-05
51 1 11.056 6.85799 2.60509 -2.8431e-05 1.55028e-05 -6.39664e-06 3.30087e-05
52 1 0.668702 9.78177 5.18343 2.00622e-05 -8.79318e-06 -1.14381e-05 2.47112e-05
53 1 10.2878 8.66505 6.7031 4.82811e-05 -1.22975e-05 -9.40015e-06 5.07016e-05
54 1 9.98368 9.61401 8.9785 1.84492e-05 1.47224e-05 3.21529e-06 2.38215e-05
55 1 9.80308 10.5356 11.2077 -4.68443e-05 5.76403e-06 9.98232e-06 4.82417e-05
56 1 10.6278 10.7101 0.76407 -5.03096e-05 1.79669e-05 -3.81648e-06 5.35577e-05
57 1 11.271 11.0259 3.13253 -3.01384e-05 -1.77059e-05 1.43846e-05 3.77986e-05
58 1 1.60092 10.6487 1.26984 2.83745e-05 -3.66622e-05 1.11092e-05 4.76722e-05
59 1 9.15416 4.60404 12.5404 7.78937e-06 -1.22217e-05 8.12125e-05 8.24955e-05
60 1 10.3334 1.69072 9.93991 4.15748e-05 2.47851e-05 2.2841e-05 5.35208e-05
61 1 10.8492 4.99422 8.7399 -5.15344e-05 -2.68929e-05 -9.16488e-07 5.81366e-05
62 1 8.63448 7.66497 8.47563 2.39952e-05 -5.51112e-06 -2.2288e-05 3.32099e-05
63 1 6.88262 6.58429 10.0834 4.58663e-05 1.66174e-05 -4.7533e-05 6.8112e-05
64 1 8.14739 6.73135 12.7587 -0.000155332 -5.10753e-05 -2.32107e-05 0.000165153
65 1 10.0522 8.9403 2.4352 -8.41705e-05 -3.01592e-05 -6.65482e-05 0.000111458
66 1 7.96976 8.82583 3.43864 -1.07378e-05 -2.65996e-05 2.3118e-05 3.68413e-05
67 1 9.66469 9.97166 4.717 -5.6766e-06 -2.44553e-05 -2.79678e-05 3.7583e-05
68 1 7.85075 8.9396 6.14202 -6.62991e-06 -1.6606e-05 3.55118e-05 3.97593e-05
69 1 7.57989 9.86901 8.56931 4.40992e-05 5.26165e-05 5.8075e-05 8.99218e-05
70 1 8.17713 8.58764 10.83 1.39954e-06 1.54654e-05 -2.02498e-06 1.56601e-05
71 1 9.40059 8.70056 0.115519 -0.000122779 0.000162058 -2.54637e-05 0.000204904
72 1 8.22366 10.6752 0.202088 0.000187475 -0.000194159 3.30915e-05 0.000271919
73 1 8.85654 10.9677 2.59194 -1.18364e-05 -2.23593e-05 2.1315e-05 3.30812e-05
74 1 6.80281 11.2337 6.65835 4.21858e-05 -5.60949e-05 6.98325e-06 7.0534e-05
75 1 7.31842 10.8748 10.7715 3.48185e-05 7.17095e-05 4.01149e-05 8.924e-05
76 1 8.7354 0.608738 11.5038 8.45416e-06 5.59598e-05 -2.28174e-05 6.10213e-05
77 1 10.1395 2.49022 12.2472 -2.6277e-05 5.62172e-06 5.08676e-05 5.75291e-05
78 1 10.1677 1.01054 3.35687 3.51281e-05 3.46176e-05 -2.73688e-05 5.6404e-05
79 1 4.64577 3.65817 7.28922 -5.14589e-06 -1.68121e-05 1.37757e-05 2.23361e-05
80 1 9.23146 10.8997 6.95621 4.4084e-05 2.13318e-05 -1.32836e-05 5.07435e-05
81 1 6.34096 4.71287 5.72833 -6.55676e-07 2.58305e-06 1.96002e-05 1.97806e-05
82 1 8.44721 2.67309 1.31599 -5.16877e-05 -1.40174e-05 1.35519e-05 5.52427e-05
83 1 2.02924 6.83375 3.0385 -7.87008e-06 -2.5321e-05 -6.5314e-05 7.04912e-05
84 1 1.33713 8.46746 7.1436 2.00951e-05 -1.21129e-05 -1.40162e-05 2.7331e-05
85 1 0.194931 6.04761 10.8675 -3.27616e-05 -3.87106e-05 1.21389e-05 5.21458e-05
86 1 1.61055 8.08806 11.4547 5.12464e-05 3.10138e-05 1.27428e-06 5.99138e-05
87 1 2.56663 8.5316 1.04954 -7.5733e-06 4.48428e-05 5.33872e-06 4.57901e-05
88 1 0.958912 8.91426 2.98392 -7.68231e-05 2.77613e-07 2.22192e-05 7.99722e-05
89 1 3.31158 8.86805 3.33112 -2.67918e-05 -1.14527e-05 5.4692e-05 6.19692e-05
90 1 0.794284 4.79729 2.42197 7.16435e-06 2.18064e-05 -6.36593e-06 2.38196e-05
91 1 0.322276 7.38971 4.98903 4.04369e-05 -2.12144e-05 -2.08175e-05 5.01852e-05
92 1 0.993561 9.38798 9.42392 3.67093e-05 -1.64424e-07 3.20505e-05 4.87323e-05
93 1 0.83914 10.3196 11.7185 -1.18013e-05 1.25198e-05 1.71909e-05 2.43216e-05
94 1 0.522465 0.646526 1.49213 -9.91104e-06 4.63033e-05 -1.76328e-05 5.05286e-05
95 1 10.9778 11.983 5.41366 -2.62302e-06 -1.13922e-05 -2.56856e-05 2.82208e-05
96 1 11.2005 0.381831 11.9517 -1.25927e-06 4.75682e-05 2.51027e-05 5.38002e-05
97 1 2.2475 0.227118 12.4322 2.71652e-06 2.08297e-05 1.6416e-05 2.66597e-05
98 1 3.61564 0.875376 4.29977 -2.93944e-07 -2.105e-05 3.92907e-05 4.45752e-05
99 1 0.256244 10.6748 7.41359 2.93227e-05 -1.98835e-05 1.00982e-05 3.68395e-05
100 1 4.05064 0.33823 8.54206 2.15823e-05 -5.94483e-05 3.67883e-05 7.31661e-05
101 1 1.40577 6.48129 0.616169 -6.4635e-05 8.37167e-06 -6.12219e-05 8.94197e-05
102 1 1.11355 6.08382 7.10668 -6.65582e-05 -2.37496e-05 -3.4838e-05 7.87891e-05
103 1 1.18735 2.36042 12.6927 -2.18351e-06 -1.16321e-05 4.52535e-05 4.67755e-05
104 1 1.1884 0.983303 3.84308 2.51995e-05 -1.55298e-05 2.05106e-05 3.60121e-05
105 1 0.16282 4.48445 0.0853021 -3.78515e-05 4.34382e-05 6.48742e-05 8.67656e-05
106 1 2.26745 10.9689 3.60654 -3.34238e-05 -3.37531e-05 1.97312e-05 5.14368e-05
107 1 1.63307 0.581381 8.12195 6.44915e-05 -2.13026e-05 7.99945e-05 0.000104938
108 1 3.62689 2.26718 0.346829 -4.00999e-05 2.77016e-05 -1.70462e-06 4.87677e-05
109 1 10.8604 2.74012 1.74552 -2.38598e-05 1.52885e-06 1.12772e-05 2.64348e-05
110 1 2.46783 5.83933 11.2678 -2.83557e-05 5.26835e-05 -2.25425e-05 6.39356e-05
111 1 2.53053 3.00682 4.56213 -5.81487e-06 -3.02842e-05 -5.77199e-06 3.13729e-05
112 1 0.560157 2.78657 8.3902 3.91777e-05 -2.7618e-05 2.60991e-05 5.45785e-05
113 1 1.36749 1.47979 10.3948 2.46684e-05 2.57135e-05 2.01091e-05 4.09156e-05
114 1 0.29231 3.64444 10.6781 2.8845e-05 -2.08194e-05 6.05711e-05 7.02448e-05
115 1 2.5997 4.41523 0.532723 2.99857e-05 6.74224e-05 -3.48371e-05 8.15999e-05
116 1 1.86596 2.71036 2.20534 -4.05764e-05 2.26403e-05 -3.11134e-05 5.59202e-05
117 1 1.43528 5.18203 4.80521 -1.45192e-05 -4.46578e-05 -3.49858e-05 5.85588e-05
118 1 11.2242 4.09356 6.41185 -3.2074e-05 -4.01813e-05 1.86032e-05 5.4675e-05
119 1 0.909765 1.88947 6.12168 1.63458e-05 -3.12118e-05 2.37132e-05 4.24697e-05
120 1 7.09168 0.507385 0.533898 -0.000185057 0.000254559 -4.60917e-06 0.000314751
121 1 2.91959 0.606498 1.96822 -1.89224e-05 -2.10924e-05 2.84616e-05 4.01622e-05
122 1 4.98249 2.82659 5.00891 9.19572e-06 -2.5607e-05 2.57179e-05 3.74391e-05
123 1 3.07 9.59645 5.59587 -1.34996e-05 -1.57604e-05 1.75431e-05 2.71734e-05
124 1 2.68096 10.4616 7.85952 5.93454e-06 -2.07285e-05 6.48714e-06 2.25161e-05
125 1 3.40201 9.1773 9.8553 5.31589e-06 5.96671e-06 -2.56872e-05 2.69015e-05
126 1 3.31514 10.1658 12.1807 -1.15075e-05 -2.17272e-05 2.11803e-05 3.24515e-05
127 1 4.00702 10.632 1.70673 4.33757e-05 -3.20682e-05 -1.57065e-05 5.61829e-05
128 1 1.98685 11.796 5.87287 1.21351e-05 -2.38736e-05 5.44028e-05 6.06372e-05
129 1 2.40468 11.3838 10.138 2.06208e-05 -2.5907e-05 6.2422e-05 7.06604e-05
130 1 4.67211 10.8672 4.00525 1.25808e-05 1.29869e-06 -4.00898e-05 4.20376e-05
131 1 6.05766 0.674148 4.70613 -6.50872e-06 -1.64992e-05 3.88028e-06 1.81561e-05
132 1 9.51583 0.643047 1.00882 9.24083e-06 3.54686e-05 -2.11517e-05 4.2318e-05
133 1 5.32136 0.660842 2.39427 2.65783e-05 -2.87283e-05 -5.18397e-05 6.49544e-05
134 1 7.46963 2.47743 5.37842 -2.49212e-05 -1.13374e-05 -3.24328e-07 2.73808e-05
135 1 5.7399 1.42658 6.96744 1.48369e-05 -3.81183e-05 8.11635e-06 4.17015e-05
136 1 5.4131 2.29642 9.22747 -2.5645e-06 -4.14269e-06 -3.0899e-05 3.12808e-05
137 1 6.22199 0.967329 11.1469 -1.22417e-05 8.97405e-05 9.47648e-06 9.1066e-05
138 1 5.16697 3.20664 11.5292 -3.75288e-05 5.53283e-05 -2.22482e-05 7.046e-05
139 1 6.48757 0.0483387 8.87404 1.83265e-05 -2.84566e-05 1.09242e-05 3.55665e-05
140 1 3.7649 6.48294 1.19025 2.46395e-05 -2.59372e-06 -6.1614e-05 6.64088e-05
141 1 4.89426 8.56516 1.17541 -3.22548e-06 3.18789e-05 -2.18383e-05 3.8776e-05
142 1 3.87976 7.8681 11.8433 -4.85309e-05 6.86653e-05 -5.68198e-05 0.000101482
143 1 3.3224 1.68743 6.57261 -2.8886e-05 -4.0159e-05 5.05063e-05 7.06968e-05
144 1 2.984 2.57266 8.83922 3.47388e-05 -3.15746e-05 1.1346e-05 4.82956e-05
145 1 3.78742 1.26715 10.8317 1.50961e-05 3.92471e-05 -9.04201e-06 4.30114e-05
146 1 2.73029 3.45864 11.128 7.37961e-06 3.75461e-05 -2.47842e-05 4.55897e-05
147 1 6.02361 2.48192 0.84617 8.63857e-05 -0.000172877 -4.57751e-05 0.000198606
148 1 4.2574 2.72414 2.68899 -4.57266e-05 2.18652e-05 6.86981e-05 8.53724e-05
149 1 3.84673 4.97698 5.30118 -9.6784e-06 -2.08856e-05 -6.88325e-06 2.40262e-05
150 1 2.21986 3.88385 6.84798 3.17323e-05 -3.96172e-05 2.22935e-05 5.54388e-05
151 1 3.50456 5.84734 7.60527 -2.62101e-05 1.31855e-05 -3.31933e-05 4.43015e-05
152 1 1.86088 4.77183 9.14485 -4.48823e-05 3.83741e-05 -3.82564e-05 7.036e-05
153 1 4.66532 5.59345 11.7701 2.52326e-05 -2.56544e-05 7.25727e-06 3.67083e-05
154 1 4.9874 4.50369 1.09149 -6.95476e-05 4.99203e-05 3.09442e-05 9.10299e-05
155 1 3.17111 4.77866 2.92799 -3.32983e-05 -6.45672e-06 -4.07359e-05 5.30083e-05
156 1 4.37472 6.83179 3.67801 -1.57102e-05 2.36479e-05 -1.29091e-05 3.11877e-05
157 1 2.73109 7.21786 5.47287 -8.22477e-06 -4.08206e-05 4.00368e-06 4.1833e-05
158 1 3.76318 8.24891 7.57919 5.15603e-05 -1.5223e-05 -2.80267e-05 6.06276e-05
159 1 2.06703 7.17668 9.19274 2.7778e-05 4.32097e-05 -4.78511e-05 7.02028e-05
160 1 6.66657 2.87932 3.15797 -3.14029e-05 -4.32563e-05 1.55739e-05 5.56758e-05
161 1 8.96093 11.8463 9.20774 2.91794e-05 4.34852e-05 -6.0182e-05 7.97764e-05
