ITEM: TIMESTEP
0
ITEM: NUMBER OF ATOMS
132
ITEM: BOX BOUNDS pp pp pp
0.0000000000000000e+00 1.1464695000000001e+01
0.0000000000000000e+00 1.1317634999999999e+01
0.0000000000000000e+00 1.1648808000000001e+01
ITEM: ATOMS id type x y z fx fy fz v_fmag
1 1 10.9106 10.9198 2.40831 2.0424e-05 -4.80044e-05 1.1289e-05 5.3376e-05
2 1 10.3404 8.35093 5.48081 -4.23118e-05 1.33351e-05 1.19477e-05 4.59441e-05
3 1 6.61366 6.94195 3.62582 1.66881e-05 -2.46044e-06 -5.67367e-06 1.77971e-05
4 1 8.3799 7.27896 1.80014 1.68243e-05 -3.96263e-05 6.72473e-05 7.98467e-05
5 1 8.41525 5.64735 11.4122 1.10048e-05 -4.29644e-05 5.98038e-05 7.4455e-05
6 1 9.60137 6.71813 9.49849 1.17717e-05 4.22016e-06 1.18456e-05 1.7225e-05
7 1 6.2432 5.01575 7.47649 5.49591e-06 -1.81798e-07 2.25599e-05 2.32204e-05
8 1 7.69844 5.70925 5.61942 -3.14634e-06 -3.1483e-05 -3.32969e-06 3.18146e-05
9 1 5.13586 4.86243 3.11193 -4.38845e-05 -2.7188e-05 2.27839e-07 5.16245e-05
10 1 6.37344 6.09627 1.28645 2.9044e-06 -5.13637e-05 -2.17099e-05 5.58389e-05
11 1 5.77925 2.69711 10.862 5.51868e-06 3.18074e-06 6.51199e-06 9.10928e-06
12 1 7.51183 4.06839 9.57843 9.04274e-06 4.38231e-05 1.62457e-05 4.76042e-05
13 1 5.08178 2.84553 6.89214 6.35277e-05 1.04397e-05 -1.21904e-05 6.55237e-05
14 1 6.30286 3.73676 4.95013 -3.02287e-05 -1.24583e-05 -1.44543e-05 3.57479e-05
15 1 6.10347 2.66149 2.61372 4.74686e-05 -6.19943e-06 -3.35578e-05 5.84621e-05
16 1 7.19245 3.80931 0.751453 -4.17553e-05 -1.70477e-05 -2.87577e-05 5.34896e-05
17 1 5.87095 0.298265 10.6123 5.89463e-06 -8.24001e-06 -5.51702e-05 5.60927e-05
18 1 6.52057 1.94472 8.69038 1.35168e-05 3.84064e-05 -5.33775e-05 6.71335e-05
19 1 6.66761 0.894105 6.51404 -1.01449e-05 1.42544e-05 -1.69857e-05 2.43849e-05
20 1 7.54157 1.43078 4.28172 2.28937e-05 -4.10438e-06 -9.06232e-07 2.32764e-05
21 1 5.96546 0.0767083 2.78816 -3.79699e-05 -4.67826e-05 -3.56175e-05 6.99924e-05
22 1 7.14995 1.16952 0.906616 4.67622e-05 -1.4074e-05 -3.20155e-05 5.83932e-05
23 1 4.34355 9.71142 10.4839 -9.27608e-06 1.60197e-05 -7.87472e-06 2.01169e-05
24 1 5.53537 10.9613 8.27497 8.99731e-06 -3.04064e-05 -2.85002e-05 4.26352e-05
25 1 3.41035 9.65814 6.55364 -5.05309e-05 2.82233e-05 -5.83221e-06 5.81716e-05
26 1 6.66983 10.4448 4.96833 -3.48433e-05 -3.96303e-06 -3.42531e-05 4.90208e-05
27 1 5.43127 8.29576 1.65997 -1.95856e-05 4.7016e-07 3.51018e-05 4.01989e-05
28 1 6.83396 9.99326 0.654543 -4.46274e-05 -4.32348e-05 -7.12513e-05 9.45388e-05
29 1 4.7014 8.68044 8.36918 -2.93342e-05 -9.96454e-06 2.41194e-05 3.92623e-05
30 1 6.25606 7.41393 6.97763 3.60392e-06 -8.80681e-05 2.59145e-05 9.18724e-05
31 1 8.70231 7.5004 7.25572 -7.80817e-06 -1.41947e-05 4.73537e-05 5.00483e-05
32 1 7.88425 8.28471 5.14486 -6.3625e-05 -1.21622e-05 -2.59145e-05 6.97683e-05
33 1 8.97057 9.07259 9.07878 -6.41966e-05 -2.23959e-05 2.88251e-05 7.38489e-05
34 1 9.33893 9.58929 0.990894 -7.89497e-05 -1.15336e-05 -4.41118e-06 7.99096e-05
35 1 11.2489 11.1401 5.13066 2.86679e-06 2.99428e-07 -2.10309e-05 2.12275e-05
36 1 9.53741 8.9264 3.2716 -3.26734e-07 -1.96485e-05 6.00479e-05 6.31817e-05
37 1 10.1943 7.53278 11.6092 6.04468e-06 -6.75017e-06 7.60713e-06 1.1831e-05
38 1 10.9728 8.11099 7.93884 6.8449e-05 -9.21812e-06 2.21519e-05 7.25324e-05
39 1 11.2923 5.59035 8.15265 -4.45401e-05 4.14853e-05 9.58577e-06 6.16177e-05
40 1 9.25122 6.48135 3.94899 1.79762e-05 -1.82686e-05 5.87962e-06 2.62956e-05
41 1 10.8362 7.20101 2.19111 -4.40718e-06 7.44726e-05 8.51347e-06 7.50871e-05
42 1 10.895 5.28189 0.23641 0.000102946 -2.56639e-05 -0.000118804 0.000159282
43 1 8.74188 5.12881 7.82138 1.22762e-05 1.21809e-05 9.09403e-06 1.95393e-05
44 1 10.2445 5.96047 6.06182 -3.84288e-05 5.03503e-06 -1.67399e-05 4.22179e-05
45 1 7.492 4.78703 3.0662 8.81155e-05 -6.50207e-05 -5.13335e-05 0.000120943
46 1 9.58183 4.88623 2.12164 -7.91265e-05 -2.7354e-05 0.000110683 0.000138781
47 1 8.13521 1.86695 10.5201 1.68868e-05 -2.51784e-05 5.68376e-06 3.08451e-05
48 1 10.0037 4.3041 9.79416 4.93217e-05 -3.27455e-05 1.25774e-05 6.05234e-05
49 1 7.62825 3.15575 6.85681 2.80671e-05 3.31709e-05 -3.41945e-05 5.52931e-05
50 1 8.70234 3.53632 4.69578 -7.50996e-06 5.53182e-06 -6.79374e-05 6.85747e-05
51 1 8.61596 2.57319 2.34478 -4.51861e-05 -1.06691e-05 -2.29453e-05 5.1789e-05
52 1 9.49865 3.29084 0.197964 7.81038e-05 -9.43074e-06 -4.68394e-05 9.15591e-05
53 1 8.42697 10.8118 10.7556 -2.98493e-05 -1.0422e-05 1.531e-05 3.51282e-05
54 1 9.21936 2.45441 8.48716 2.72978e-06 -1.42088e-05 -3.01996e-05 3.34867e-05
55 1 9.11025 1.3062 6.184 -1.54849e-05 -8.37112e-06 1.21706e-05 2.14005e-05
56 1 10.1 1.58415 3.89613 1.75503e-05 -1.02044e-05 3.36844e-05 3.93291e-05
57 1 8.46968 11.2784 2.56408 5.05599e-05 2.48418e-05 3.56042e-05 6.66414e-05
58 1 9.76716 0.932968 0.689168 1.36426e-05 -8.63002e-06 -1.08105e-05 1.94284e-05
59 1 6.68117 9.39157 9.6312 3.85198e-05 -6.94621e-05 3.56928e-05 8.70789e-05
60 1 8.23987 0.190341 8.43692 -1.91807e-05 -4.62233e-05 2.55579e-05 5.61934e-05
61 1 7.30965 9.63108 7.16602 -2.29472e-06 4.30305e-05 -1.86062e-06 4.31318e-05
62 1 8.97489 10.5973 4.86016 -3.2122e-05 -6.48207e-06 2.63626e-05 4.20574e-05
63 1 7.17026 9.22539 2.95967 4.94272e-05 -4.40081e-05 -4.3575e-05 7.92373e-05
64 1 7.89929 8.06731 11.204 -9.34144e-05 2.45805e-05 4.95347e-05 0.000108555
65 1 4.18572 7.03907 3.37716 2.95917e-05 5.50501e-06 6.23972e-05 6.92776e-05
66 1 5.50101 7.66155 10.9407 -8.89156e-05 -2.02999e-05 4.36725e-05 0.000101121
67 1 5.86141 5.29379 10.7685 9.71192e-06 -2.06934e-05 2.63087e-05 3.48523e-05
68 1 0.296093 2.63755 11.0101 -1.89875e-05 2.40645e-05 1.67305e-05 3.49219e-05
69 1 2.4686 3.64906 8.97852 5.62069e-05 -0.000140316 -0.000192545 0.000244789
70 1 0.409771 2.18389 5.56691 1.47604e-05 2.66674e-06 -1.32555e-06 1.50578e-05
71 1 1.59158 3.54873 3.87966 5.65692e-06 -5.64835e-05 -5.01177e-05 7.57243e-05
72 1 0.990822 1.19282 3.30471 8.25022e-05 -8.61293e-07 -3.86175e-07 8.25076e-05
73 1 1.82271 4.0914 0.699582 2.52325e-06 5.10245e-05 4.16136e-05 6.58905e-05
74 1 0.520145 0.17327 0.0059127 1.98898e-05 2.7164e-05 -2.81433e-06 3.37848e-05
75 1 1.5135 1.23731 9.32581 5.64384e-05 2.01471e-05 -3.10618e-05 6.74984e-05
76 1 1.70864 0.253705 6.78456 -7.45677e-06 -8.66963e-05 -2.15899e-05 8.96548e-05
77 1 2.74513 1.56176 4.87113 3.5769e-05 -5.40771e-05 -0.000147302 0.00016094
78 1 2.05772 10.6051 4.45781 2.0845e-05 2.32599e-05 -8.95254e-05 9.48173e-05
79 1 1.97125 1.73401 1.20792 -2.25335e-05 4.55178e-05 4.06215e-06 5.09523e-05
80 1 0.426444 10.3534 8.5993 1.03241e-05 7.43912e-07 3.34916e-05 3.50547e-05
81 1 0.890595 9.36176 6.30475 -1.67132e-05 5.72965e-05 -6.70757e-06 6.00601e-05
82 1 0.44741 9.07346 3.63111 1.08984e-05 6.89591e-06 9.23961e-06 1.5865e-05
83 1 1.87498 10.5791 1.83494 6.51891e-05 1.71888e-05 -6.24407e-05 9.18908e-05
84 1 0.557727 7.44243 9.99023 -6.14712e-06 -1.21444e-05 -1.32256e-05 1.89787e-05
85 1 1.14127 6.94976 6.54231 -4.73813e-05 1.1454e-05 5.66861e-05 7.4763e-05
86 1 2.48982 8.20483 4.82505 -1.12576e-05 2.81917e-06 5.53601e-06 1.2858e-05
87 1 0.443498 8.94177 0.945937 -3.57275e-07 1.5898e-05 1.12058e-05 1.94536e-05
88 1 0.93389 4.9338 10.1961 -7.93191e-05 7.42173e-05 0.000136401 0.00017437
89 1 2.21979 6.07731 8.52355 -2.88316e-05 4.68337e-05 -2.50199e-05 6.04206e-05
90 1 0.355698 6.63238 4.32934 7.71721e-06 2.88444e-05 -3.07385e-05 4.28534e-05
91 1 0.229346 3.13051 8.42778 3.13729e-05 6.81131e-05 2.09091e-05 7.78514e-05
92 1 10.8489 4.27719 4.28166 -8.14936e-05 -4.46089e-05 2.67323e-05 9.66736e-05
93 1 10.1977 3.58016 6.59538 -1.14319e-06 2.45551e-05 7.82126e-06 2.5796e-05
94 1 11.2207 2.83776 1.93126 -2.4019e-05 1.06088e-05 -2.27348e-05 3.47323e-05
95 1 10.4058 0.802105 9.86799 -1.90945e-05 -1.61251e-05 -4.22204e-06 2.53465e-05
96 1 11.0236 1.01085 7.52291 4.92834e-05 4.35164e-05 -5.99149e-05 8.89513e-05
97 1 1.51858 6.58789 0.386674 -3.68123e-05 4.71296e-06 -1.36689e-05 3.95499e-05
98 1 0.541859 5.18209 2.38807 5.81236e-05 1.29115e-05 -4.00025e-05 7.17304e-05
99 1 2.60137 5.78165 4.86768 -3.50712e-05 2.80395e-05 2.85209e-05 5.31944e-05
100 1 1.11767 4.47563 6.32384 7.4709e-06 -7.01056e-06 1.05501e-06 1.02993e-05
101 1 7.1693 6.77538 9.19062 4.41767e-05 1.27629e-05 7.66042e-06 4.66171e-05
102 1 3.62189 4.80792 7.0742 -3.17769e-05 1.14474e-05 -1.76989e-05 3.81322e-05
103 1 5.15529 5.87503 5.37106 1.72943e-05 1.27447e-05 2.52788e-05 3.31744e-05
104 1 2.86943 5.18749 2.53603 -1.15142e-05 -2.03851e-05 7.79918e-05 8.14301e-05
105 1 3.98602 6.49197 0.894515 -8.80269e-08 -7.28094e-07 1.43441e-05 1.43629e-05
106 1 3.21939 2.70819 10.9912 -4.05281e-05 -1.78032e-05 -4.04361e-05 5.99547e-05
107 1 4.84688 3.89074 9.07172 3.84984e-05 5.38456e-05 -4.90511e-05 8.23862e-05
108 1 2.48792 2.53056 7.00051 5.41532e-05 0.0001396 0.00014187 0.000206272
109 1 3.81912 3.73354 4.95144 2.16261e-06 5.72842e-06 -1.83362e-05 1.93316e-05
110 1 3.57943 2.88772 2.69621 -3.27486e-06 -1.69024e-05 -2.65758e-05 3.16653e-05
111 1 4.61392 4.09716 0.873404 1.37811e-05 2.61045e-05 -4.52594e-05 5.4035e-05
112 1 3.00853 0.303837 11.1312 -1.80734e-06 2.96747e-05 1.99218e-05 3.57874e-05
113 1 4.07509 1.55914 9.05176 3.14309e-05 -1.13787e-05 4.48946e-05 5.59723e-05
114 1 4.10836 0.688913 6.73087 -5.83278e-06 2.09457e-05 1.34866e-07 2.17431e-05
115 1 9.85611 10.1919 7.08478 2.05821e-05 3.21059e-05 9.38255e-05 0.00010128
116 1 5.14102 1.6673 4.60154 -1.88447e-05 -2.3306e-05 -1.42663e-05 3.31937e-05
117 1 4.66742 1.54906 0.943832 1.80734e-05 -2.9101e-05 -6.64105e-05 7.47253e-05
118 1 1.7227 9.61569 10.5501 7.83919e-07 -1.65037e-06 2.34595e-05 2.35305e-05
119 1 3.02172 10.7151 8.71537 3.44687e-05 -2.5766e-05 3.95592e-05 5.84543e-05
120 1 2.07688 8.50388 8.27876 -1.92397e-05 2.22993e-05 -3.36085e-05 4.46873e-05
121 1 4.41757 10.748 4.74117 -0.000107498 1.89385e-05 -1.73234e-05 0.000110519
122 1 3.67368 9.33797 3.01361 -3.47915e-05 2.82185e-05 1.56347e-05 4.74465e-05
123 1 4.52215 10.5123 1.05529 -3.12893e-05 -6.81739e-05 -4.17937e-05 8.58685e-05
124 1 3.11598 7.5606 10.2647 -1.34533e-05 2.5818e-05 -3.39449e-05 4.47193e-05
125 1 3.65064 7.21513 6.72736 -3.5022e-06 3.72009e-05 -6.83733e-06 3.79858e-05
126 1 5.1989 8.47102 5.0658 1.64856e-05 -3.34487e-05 7.40994e-05 8.29536e-05
127 1 1.91012 7.46743 2.56688 7.28312e-06 7.10049e-07 6.75526e-05 6.79478e-05
128 1 2.99636 8.68037 0.741251 -5.81211e-06 3.37891e-05 -5.96486e-06 3.48003e-05
129 1 3.3584 5.17839 10.6494 5.42814e-05 5.94212e-05 9.70777e-05 0.000126101
130 1 4.70522 6.3358 8.83143 -4.70241e-05 1.96707e-05 -2.96164e-05 5.8952e-05
131 1 3.54448 0.557807 2.83687 -6.78412e-06 5.41486e-05 0.000103744 0.000117221
132 1 10.6901 9.6874 10.5705 4.91323e-05 2.78458e-05 -1.36464e-05 5.80999e-05
