ITEM: TIMESTEP
0
ITEM: NUMBER OF ATOMS
129
ITEM: BOX BOUNDS pp pp pp
0.0000000000000000e+00 1.1464695000000001e+01
0.0000000000000000e+00 1.1317634999999999e+01
0.0000000000000000e+00 1.1648808000000001e+01
ITEM: ATOMS id type x y z fx fy fz v_fmag
1 1 4.57648 1.61882 0.568395 2.57919e-05 4.80306e-05 6.20548e-06 5.48696e-05
2 1 8.94904 8.7817 0.958376 4.24732e-05 2.38394e-06 -8.4619e-06 4.33735e-05
3 1 7.43749 7.81904 10.0366 -2.71692e-05 1.09502e-05 -2.87895e-05 4.1072e-05
4 1 6.73948 6.35783 8.30127 -2.13659e-06 -3.201e-06 -1.00327e-05 1.07456e-05
5 1 8.24532 7.46809 6.58761 -3.54298e-05 3.39706e-06 -3.76243e-05 5.17918e-05
6 1 9.89624 7.02409 4.59156 6.15931e-05 7.45178e-05 -8.82561e-06 9.70799e-05
7 1 9.61997 6.52793 2.23354 -6.41254e-05 5.29017e-06 -2.4021e-05 6.86808e-05
8 1 6.13234 5.73904 11.0867 1.00655e-05 1.95626e-05 -7.61527e-06 2.3281e-05
9 1 8.63543 3.95137 7.84139 1.20307e-05 3.22078e-05 -1.22715e-05 3.65058e-05
10 1 9.90856 5.56932 6.5541 1.59648e-05 -5.70376e-05 -3.37858e-05 6.81883e-05
11 1 0.225458 5.298 4.92824 1.45571e-05 7.63504e-05 3.65965e-05 8.59104e-05
12 1 9.15997 4.51218 0.952378 -6.43023e-05 -1.23407e-05 3.6612e-05 7.50168e-05
13 1 10.0382 3.04438 10.6757 3.32374e-06 7.39389e-09 -3.00366e-05 3.02199e-05
14 1 7.93878 2.16667 9.4641 5.21296e-05 1.56177e-06 4.72878e-05 7.03994e-05
15 1 8.45492 9.68685 3.16554 4.9975e-05 2.46475e-05 -4.87032e-05 7.40068e-05
16 1 11.3877 3.5704 6.64166 1.43576e-05 4.07511e-05 -2.44785e-05 4.96588e-05
17 1 8.76906 0.910174 11.5442 1.34868e-05 -2.833e-05 2.22125e-05 3.84432e-05
18 1 8.44154 1.50069 6.94088 2.32644e-06 -3.23528e-05 -2.51742e-05 4.10592e-05
19 1 9.95885 1.79576 3.66301 -2.15911e-05 -7.27656e-05 9.07042e-05 0.000118272
20 1 7.88638 0.989653 2.39694 -1.10396e-05 5.42664e-05 1.67659e-05 5.78603e-05
21 1 0.792727 3.1696 0.493388 8.09753e-05 -1.06038e-05 -1.26301e-05 8.26375e-05
22 1 2.39362 10.4651 7.85411 4.59589e-05 -2.93845e-05 -8.05944e-06 5.51418e-05
23 1 4.14452 10.5494 4.04797 -6.78642e-06 2.30707e-05 -2.18235e-05 3.24742e-05
24 1 4.82408 10.3548 0.547644 -3.36116e-06 -2.20047e-07 4.9709e-05 4.9823e-05
25 1 3.38131 9.28687 9.74844 3.26278e-06 -3.17941e-05 -3.8519e-05 5.00522e-05
26 1 3.97826 8.30711 7.61518 -2.03649e-05 5.01054e-06 -1.26759e-05 2.45054e-05
27 1 5.30676 9.62338 5.97938 1.37337e-05 1.22451e-08 -4.73907e-07 1.37419e-05
28 1 4.46042 8.08882 4.3081 2.49749e-05 -3.03998e-05 -2.75226e-05 4.80144e-05
29 1 5.95279 9.23549 2.68676 1.14522e-05 5.88688e-06 -1.64061e-05 2.08559e-05
30 1 10.4572 4.28766 3.12571 2.01876e-05 3.08034e-05 5.86385e-05 6.92449e-05
31 1 7.15355 8.2666 4.64775 -4.34333e-05 -1.66496e-05 1.40978e-06 4.65366e-05
32 1 7.72492 9.96463 6.37524 -4.59209e-05 1.08876e-05 -1.62324e-05 4.99075e-05
33 1 6.41261 8.77474 7.99808 -2.89585e-05 -1.97983e-05 -5.08405e-06 3.5446e-05
34 1 0.849396 2.36538 9.75653 -2.39269e-05 -1.17802e-05 3.39635e-05 4.31832e-05
35 1 1.7684 1.95378 6.39457 -1.94882e-05 -3.29474e-06 2.88016e-05 3.4931e-05
36 1 2.14648 1.07529 0.194379 -5.1003e-05 -1.0295e-05 9.88033e-06 5.29614e-05
37 1 9.97225 0.206811 9.54806 3.76948e-05 6.76219e-06 -1.16317e-06 3.83142e-05
38 1 11.1421 10.9365 3.8966 3.97391e-05 -2.00242e-05 -5.38965e-05 6.98928e-05
39 1 11.3102 9.5352 8.81764 -1.69471e-05 3.24857e-05 1.4922e-05 3.95626e-05
40 1 7.43186 11.1688 8.59101 -3.17405e-05 1.16549e-05 -4.35868e-05 5.51644e-05
41 1 8.95957 0.0564134 4.88934 -9.03883e-05 0.000216319 -3.49251e-05 0.000237031
42 1 9.90036 11.1135 1.76453 -8.56596e-06 -2.74608e-06 1.34477e-05 1.61789e-05
43 1 8.34589 10.0359 10.5742 2.43339e-05 6.58057e-05 -1.77081e-06 7.0183e-05
44 1 8.84111 9.02168 8.38077 -5.00826e-05 -3.26353e-05 -6.44595e-05 8.79111e-05
45 1 9.85451 10.8285 7.21662 6.48511e-07 2.07441e-05 1.42434e-05 2.51717e-05
46 1 9.86203 9.23307 5.24963 4.58369e-05 -0.000193552 1.86533e-05 0.000199778
47 1 10.7266 8.79784 2.79255 1.18343e-05 -5.6044e-07 7.67865e-06 1.41183e-05
48 1 9.82951 8.05117 10.3074 -3.44547e-05 -5.05944e-05 -4.43435e-06 6.13725e-05
49 1 9.10836 6.34155 8.72051 1.22806e-05 -4.87262e-06 3.41257e-06 1.36455e-05
50 1 10.6186 7.87065 7.10062 5.99599e-06 -3.79648e-05 -4.38791e-05 5.83323e-05
51 1 0.431784 6.71899 3.047 2.12044e-05 4.60549e-05 -4.24206e-05 6.61074e-05
52 1 8.27651 6.58953 0.192407 2.16479e-05 -4.45504e-05 -6.49148e-08 4.95315e-05
53 1 10.9428 4.51806 8.79228 5.82163e-06 -5.43794e-05 -5.62199e-05 7.84327e-05
54 1 10.316 5.63087 10.8155 1.99309e-05 3.5978e-05 -6.34617e-05 7.56244e-05
55 1 10.2545 2.22555 8.31624 2.79959e-05 -2.14147e-05 4.00083e-05 5.332e-05
56 1 11.2566 0.958362 11.5465 3.28725e-05 1.01283e-06 -3.01219e-05 4.45977e-05
57 1 10.8531 1.2642 5.89156 -5.21512e-06 -3.45648e-06 -3.98559e-05 4.0344e-05
58 1 0.770469 1.52786 2.40276 2.52805e-05 -4.16922e-05 1.67224e-05 5.15459e-05
59 1 4.81726 10.6852 8.17291 -2.39152e-05 4.40635e-05 1.61752e-05 5.26798e-05
60 1 6.64452 10.8714 4.32964 -6.09976e-06 2.42692e-05 1.20295e-05 2.77653e-05
61 1 7.22682 10.4659 1.00187 -2.97804e-05 6.59949e-05 1.01076e-05 7.31051e-05
62 1 5.88358 9.77115 10.1548 1.08706e-05 5.14387e-06 -1.96478e-05 2.30362e-05
63 1 6.10813 8.16455 0.407217 -5.27398e-05 4.45325e-05 -4.90531e-05 8.46808e-05
64 1 0.545681 2.81544 4.4296 -1.87308e-05 -3.90944e-05 1.03519e-05 4.45688e-05
65 1 5.02977 7.43595 9.66565 -2.72046e-05 2.13747e-05 -5.78333e-07 3.46021e-05
66 1 5.64727 7.13527 6.26287 2.15418e-05 1.7089e-05 2.69373e-05 3.84929e-05
67 1 4.6664 4.31893 0.903501 -1.6446e-05 -3.14746e-05 3.09256e-05 4.70905e-05
68 1 5.61206 3.16555 10.6603 2.8378e-05 3.7455e-05 3.9805e-05 6.15843e-05
69 1 2.86607 1.48109 8.51456 1.08893e-05 -2.97898e-05 -3.30517e-05 4.58086e-05
70 1 6.5181 2.9904 6.59549 -2.9566e-05 2.66548e-05 1.13608e-05 4.13968e-05
71 1 5.77973 2.74892 2.35325 -1.53406e-05 2.30975e-05 -3.40675e-05 4.39252e-05
72 1 3.95665 0.340954 10.2725 5.50864e-05 -2.24898e-05 -6.94647e-06 5.99046e-05
73 1 3.69568 0.345056 6.19224 -2.04864e-05 1.74534e-05 -4.51099e-07 2.69168e-05
74 1 5.11728 1.63022 4.49862 2.36198e-05 -1.0751e-05 1.4386e-05 2.96722e-05
75 1 3.01076 0.293108 2.27606 7.17361e-08 -4.33057e-05 3.02105e-05 5.28021e-05
76 1 7.44024 2.83054 0.493353 1.28657e-05 9.43531e-06 3.0716e-05 3.46125e-05
77 1 1.70885 7.89303 1.42107 -8.58024e-05 2.328e-06 -1.59432e-05 8.73021e-05
78 1 11.0378 7.5637 0.599461 3.25563e-05 -2.98025e-05 -5.36437e-05 6.94676e-05
79 1 0.0870898 6.87526 9.13519 1.89382e-05 -1.17275e-05 3.72921e-05 4.34383e-05
80 1 6.35786 3.9014 4.32668 1.45119e-05 0.000100117 5.8295e-05 0.000116758
81 1 0.775628 7.76114 5.23791 -5.84857e-06 3.04023e-05 -2.9756e-05 4.29409e-05
82 1 2.56565 5.53271 1.00939 3.93582e-05 -2.90093e-06 -6.0081e-06 3.99197e-05
83 1 1.88225 3.94503 8.14359 -1.32746e-05 -2.37398e-05 -5.73351e-06 2.77969e-05
84 1 2.36808 4.33649 5.58726 6.2598e-05 -2.45598e-05 1.75859e-05 6.9505e-05
85 1 2.93356 2.38902 4.13009 -5.63747e-06 -1.12632e-07 3.58682e-05 3.63087e-05
86 1 0.122127 5.28952 1.15492 -5.01651e-05 -3.5471e-05 4.08176e-06 6.15743e-05
87 1 2.99657 3.08649 10.8683 1.7841e-05 8.09466e-05 1.76285e-05 8.47432e-05
88 1 0.500677 0.611366 7.98194 -2.01965e-05 5.82127e-06 3.22615e-06 2.12648e-05
89 1 4.10505 2.68749 6.54117 -2.29441e-05 -1.4378e-05 0.000107033 0.000110405
90 1 2.91311 2.86436 1.77324 -1.59998e-05 -2.90414e-06 2.30996e-05 2.82492e-05
91 1 1.36951 11.0102 10.0362 -1.66939e-05 -5.18749e-05 3.47907e-05 6.46535e-05
92 1 0.521521 10.1589 6.164 4.89472e-05 -1.14774e-05 -3.88419e-06 5.04247e-05
93 1 1.85095 0.263934 4.55294 -4.18e-06 -1.60529e-05 -2.81311e-06 1.6825e-05
94 1 0.777243 10.4927 1.67032 -1.19182e-05 -3.46463e-06 2.55676e-06 1.26721e-05
95 1 1.58436 4.44123 3.01001 5.24723e-05 -1.47903e-05 3.53722e-06 5.46316e-05
96 1 4.76563 4.87551 5.79195 -1.64737e-05 -2.27434e-05 2.11912e-05 3.51811e-05
97 1 4.07825 3.54925 8.7812 -9.13108e-06 -2.10635e-05 -4.74563e-05 5.27176e-05
98 1 1.31049 5.0121 10.4763 -5.96969e-07 -9.33942e-06 -1.24826e-05 1.56012e-05
99 1 5.88417 6.20812 3.97618 -2.25495e-05 -4.93543e-05 -5.82369e-05 7.95982e-05
100 1 7.40137 7.37868 2.38701 -6.66158e-05 -3.90158e-05 3.61937e-06 7.72852e-05
101 1 3.86485 5.31858 10.4626 -1.87795e-05 -8.37266e-07 9.54823e-06 2.10841e-05
102 1 6.33951 4.13505 8.63776 1.03423e-05 7.10216e-05 -3.42109e-05 7.95074e-05
103 1 7.31978 5.25191 6.18723 -4.50916e-05 -1.05012e-05 -2.22917e-05 5.13853e-05
104 1 8.2486 5.48195 3.9644 -5.19665e-05 1.62661e-05 4.06909e-05 6.79769e-05
105 1 6.81976 5.06767 1.80789 -7.75342e-06 1.41065e-05 2.9568e-05 3.36657e-05
106 1 8.10761 4.57244 10.2707 -2.86411e-05 2.74318e-05 1.84325e-05 4.3733e-05
107 1 5.57111 1.64806 8.63873 -8.80747e-06 -5.9244e-05 5.47766e-06 6.0145e-05
108 1 9.21835 3.50665 5.3479 -8.10889e-07 -1.93631e-05 1.10659e-06 1.94116e-05
109 1 8.21208 3.33594 2.8503 3.55916e-05 -1.62354e-05 9.75427e-06 4.03175e-05
110 1 6.42427 0.735126 10.8739 4.68569e-05 -2.8416e-05 3.81639e-05 6.67796e-05
111 1 6.1691 0.590839 6.4977 1.10492e-05 -5.65565e-05 8.63464e-06 5.8269e-05
112 1 7.51131 1.86038 4.65817 0.000131675 -7.81729e-05 -5.31389e-06 0.000153224
113 1 5.52285 0.377577 2.38454 3.22974e-05 1.74427e-06 4.10515e-05 5.22627e-05
114 1 10.0491 2.37429 1.40995 -2.40388e-05 3.63835e-05 1.36803e-05 4.57031e-05
115 1 1.69257 9.24259 3.54697 -3.0435e-05 4.79297e-05 -1.27917e-05 5.81994e-05
116 1 2.53922 9.97231 0.250563 8.83867e-05 1.49492e-05 9.02161e-06 9.00948e-05
117 1 10.861 9.93558 11.3672 -6.41136e-05 -2.06897e-05 -3.74233e-05 7.70657e-05
118 1 1.53309 8.26492 7.58379 -4.2869e-05 -1.65856e-05 -1.32181e-05 4.78283e-05
119 1 2.80114 9.30662 5.69133 -2.29501e-05 1.05371e-05 1.17283e-05 2.7844e-05
120 1 2.7819 6.62456 3.44249 5.63261e-06 -9.63615e-06 -1.37825e-05 1.77352e-05
121 1 3.67824 8.94104 2.16308 7.30591e-05 -4.65196e-06 -3.05189e-05 7.93138e-05
122 1 3.6068 7.62256 11.5804 7.07209e-06 -1.34232e-05 -1.52178e-05 2.1489e-05
123 1 1.22184 8.38589 10.6129 3.02896e-06 4.11659e-05 -1.29826e-05 4.32707e-05
124 1 2.53142 6.83008 9.21211 3.04555e-06 2.7185e-05 2.53342e-05 3.72843e-05
125 1 3.02633 6.74241 5.92177 -5.49928e-05 -9.82575e-06 -8.26204e-06 5.64714e-05
126 1 4.10672 4.5034 3.35787 -8.44841e-06 -8.01548e-06 4.37696e-05 4.52924e-05
127 1 4.78623 6.65337 1.86077 2.29651e-05 -2.58627e-05 7.51591e-06 3.53944e-05
128 1 4.27922 5.77081 7.9359 -3.02662e-05 4.25386e-06 1.19527e-05 3.28177e-05
129 1 0.990851 5.92679 7.1228 -1.8555e-05 4.28181e-05 2.91568e-05 5.50254e-05
