ITEM: TIMESTEP
0
ITEM: NUMBER OF ATOMS
154
ITEM: BOX BOUNDS pp pp pp
0.0000000000000000e+00 1.1400361000000000e+01
0.0000000000000000e+00 1.2098903999999999e+01
0.0000000000000000e+00 1.2816801000000000e+01
ITEM: ATOMS id type x y z fx fy fz v_fmag
1 1 1.19342 11.947 11.8698 -1.48805e-05 -3.80746e-06 -5.27086e-05 5.4901e-05
2 1 7.36042 2.19032 10.0078 -0.000221423 -3.07941e-05 4.69813e-05 0.000228437
3 1 6.76534 3.15478 12.3974 4.35732e-05 4.69721e-05 2.23293e-05 6.78498e-05
4 1 7.5039 5.49941 12.777 -1.83646e-05 3.0697e-06 -2.19749e-05 2.88024e-05
5 1 3.8763 3.78544 1.9608 6.71635e-05 -0.000105092 -3.72273e-05 0.000130158
6 1 8.34032 5.65843 4.27106 -3.25496e-05 -6.61281e-06 -5.16234e-06 3.36133e-05
7 1 7.17218 4.34608 6.16249 1.78515e-05 3.44188e-05 -8.63534e-06 3.97228e-05
8 1 9.1522 5.86138 8.59114 6.56489e-05 6.5557e-06 -5.33957e-06 6.61911e-05
9 1 7.99289 4.51664 10.475 3.85095e-05 4.17816e-05 3.16911e-05 6.50616e-05
10 1 9.20318 3.6121 12.4579 -4.20239e-05 1.30871e-06 -4.47173e-05 6.13788e-05
11 1 8.25234 7.83207 0.408164 6.30107e-05 3.13082e-07 -9.54597e-07 6.30187e-05
12 1 7.0826 6.50611 2.28284 -1.46229e-05 -2.23824e-05 2.10667e-05 3.40383e-05
13 1 9.11632 7.99162 4.72908 -1.62776e-05 -1.74967e-05 -2.52581e-05 3.47717e-05
14 1 7.92889 6.6837 6.59108 -2.6168e-05 3.84124e-05 -1.65396e-05 4.93339e-05
15 1 9.9011 8.24657 9.06885 -1.10427e-05 -2.83881e-05 -3.21829e-05 4.43121e-05
16 1 8.70617 6.8411 10.9004 1.50199e-05 -2.25986e-05 1.42239e-05 3.06368e-05
17 1 8.40414 3.5021 8.14284 2.57854e-05 2.80738e-05 -2.78818e-05 4.72273e-05
18 1 9.0191 10.1586 0.874848 -1.07099e-06 9.29871e-06 6.41391e-06 1.13469e-05
19 1 6.46091 2.00979 5.7434 -1.73721e-05 -3.70279e-05 1.00659e-05 4.2121e-05
20 1 5.62521 1.80674 1.57267 -5.49923e-05 -2.25695e-05 2.89331e-05 6.61109e-05
21 1 7.42583 9.82526 5.06372 1.70337e-05 1.70343e-05 -1.84515e-05 3.03443e-05
22 1 6.20076 8.51444 6.94157 5.97088e-05 4.00184e-05 -3.5027e-05 7.99594e-05
23 1 5.79565 9.56045 9.27443 1.55032e-05 4.57472e-05 5.07279e-05 7.00463e-05
24 1 4.55974 8.24411 11.1583 -2.53303e-05 2.56437e-05 3.13809e-05 4.7791e-05
25 1 7.39374 11.9909 1.32424 -3.99828e-05 2.87113e-05 -5.19136e-05 7.15401e-05
26 1 6.16595 10.6803 3.06151 -3.99785e-05 1.16416e-05 -7.42479e-06 4.22958e-05
27 1 5.75694 11.6551 5.25358 1.13609e-05 7.38097e-05 3.4178e-05 8.21284e-05
28 1 4.51638 10.3434 7.29653 3.39675e-05 -2.27727e-05 -2.10519e-05 4.59953e-05
29 1 6.38203 11.9842 9.71025 -5.75963e-06 1.53029e-05 4.56265e-05 4.84679e-05
30 1 5.29839 10.5477 11.6079 8.38329e-06 -9.71692e-06 1.21622e-05 1.7681e-05
31 1 8.49486 1.27965 12.0659 -4.20834e-05 1.15902e-05 1.21256e-05 4.53031e-05
32 1 6.90043 0.956351 3.51562 3.94227e-05 5.98778e-07 4.02789e-05 5.63639e-05
33 1 7.70533 1.12551 7.76871 -3.36271e-05 -2.58087e-05 1.98565e-05 4.68097e-05
34 1 8.87034 0.252447 9.78242 3.10291e-05 -5.37902e-05 -3.24512e-06 6.21829e-05
35 1 6.3161 4.17191 1.85354 2.85389e-05 4.27341e-05 7.28276e-05 8.91321e-05
36 1 7.59971 3.32185 3.83907 -2.0746e-05 1.18137e-05 3.30956e-05 4.08078e-05
37 1 7.84609 8.83633 2.73242 8.15773e-05 -8.48964e-06 -1.01381e-05 8.26421e-05
38 1 9.85672 10.3327 5.20328 -5.21887e-05 3.50427e-06 -6.49203e-05 8.33702e-05
39 1 8.66058 8.99263 7.04612 -3.78556e-05 -8.27602e-06 -6.05248e-05 7.18664e-05
40 1 9.60525 4.84136 6.2692 3.11876e-05 -2.9926e-05 6.05457e-06 4.3645e-05
41 1 0.145464 6.28129 8.71288 -2.02025e-05 -4.79729e-05 2.71461e-05 5.87065e-05
42 1 10.3992 4.94555 10.5699 -1.1862e-05 -6.13192e-05 2.3775e-05 6.68282e-05
43 1 9.92722 5.95876 0.061646 -2.42914e-05 5.02637e-07 -4.27595e-05 4.91803e-05
44 1 9.50853 6.97709 2.3886 2.93642e-05 6.2483e-05 -3.29334e-05 7.64918e-05
45 1 10.3995 7.18698 6.73976 5.52912e-06 -2.20779e-05 -1.68371e-05 2.83107e-05
46 1 11.1203 7.27222 11.0141 -2.52509e-05 2.95482e-05 1.25268e-05 4.08366e-05
47 1 10.6817 8.29636 0.519435 -6.51235e-05 8.27079e-06 -1.67575e-05 6.77517e-05
48 1 10.2807 9.30739 2.87725 -5.84004e-05 -3.9202e-05 -4.26605e-05 8.22637e-05
49 1 0.406371 9.62912 11.3432 -3.26771e-05 4.4923e-06 -2.19956e-05 3.96457e-05
50 1 9.42897 9.15362 11.3733 2.35879e-05 -1.98844e-05 -2.98184e-05 4.29059e-05
51 1 0.0264904 10.6345 0.916316 -3.65394e-05 2.79844e-05 -2.56955e-05 5.27116e-05
52 1 10.5578 0.598565 5.54536 1.77376e-05 5.26118e-05 -2.29593e-05 6.00812e-05
53 1 9.43856 11.328 7.55775 3.34457e-05 -8.99003e-05 -7.11835e-06 9.6184e-05
54 1 11.2514 0.602064 9.81152 -1.24097e-05 2.39759e-05 -6.49395e-06 2.77672e-05
55 1 10.7613 6.14179 4.37553 -1.24236e-07 1.63806e-05 -2.33959e-05 2.85606e-05
56 1 8.7546 4.63348 1.94769 7.73672e-06 1.43599e-05 -2.05012e-05 2.61986e-05
57 1 11.177 5.12259 2.03205 4.50042e-05 -2.56271e-05 4.15832e-05 6.64175e-05
58 1 0.69773 3.0531 10.2462 -5.72851e-05 -1.12088e-06 7.50092e-06 5.7785e-05
59 1 8.24418 10.0502 9.39268 -4.46063e-05 1.92162e-05 -3.00572e-06 4.86623e-05
60 1 7.01006 8.71969 11.2536 -2.6327e-05 7.49605e-05 4.7653e-06 7.9592e-05
61 1 8.60947 11.1606 3.24312 -5.8349e-07 4.84553e-06 -3.00501e-06 5.73147e-06
62 1 8.15303 0.0908843 5.52947 -7.77196e-06 -2.5361e-05 -2.44747e-05 3.60914e-05
63 1 7.00922 10.8146 7.38689 4.17195e-05 -7.04305e-05 -5.52745e-05 9.87737e-05
64 1 7.76295 11.0102 11.6816 -3.50847e-05 -7.3049e-06 1.10941e-07 3.58373e-05
65 1 9.76065 0.413205 1.23622 5.30047e-05 -3.63952e-05 2.99661e-06 6.43668e-05
66 1 5.40471 8.38569 2.63932 -1.57606e-05 -3.92023e-05 -3.40412e-06 4.23888e-05
67 1 9.30247 1.43489 3.54729 4.18933e-05 -1.12657e-05 3.13188e-05 5.35054e-05
68 1 10.916 1.72495 12.139 -6.10832e-05 -3.70758e-05 3.01915e-06 7.15184e-05
69 1 10.4638 2.7661 1.63907 -3.60885e-05 1.15929e-05 7.77033e-06 3.86931e-05
70 1 8.03859 2.28178 1.54866 5.37081e-05 -3.39081e-05 2.20996e-05 6.72511e-05
71 1 10.0157 3.79444 3.94512 5.83464e-05 -7.13467e-06 1.32171e-05 6.02486e-05
72 1 8.86202 2.47578 5.84258 3.77639e-05 -6.11432e-05 -1.00493e-05 7.25644e-05
73 1 10.8239 3.95329 8.25602 -5.02821e-05 -4.46912e-05 -1.37719e-05 6.86677e-05
74 1 9.71253 2.60365 10.1452 0.000108344 1.27203e-05 1.94809e-05 0.000110814
75 1 10.0978 1.61184 7.83836 -3.96359e-05 2.56791e-05 -2.23035e-05 5.22289e-05
76 1 6.57848 9.7183 0.749561 1.07547e-05 -4.68487e-07 -1.55815e-06 1.08771e-05
77 1 6.28274 6.44994 10.8138 1.41145e-05 -2.87156e-05 1.55178e-05 3.55613e-05
78 1 7.47162 7.71304 8.92027 -4.54576e-05 2.69514e-05 -4.34557e-05 6.8419e-05
79 1 2.83218 0.144099 7.59697 -4.72669e-05 1.32312e-05 1.19144e-05 5.05091e-05
80 1 2.20063 1.1127 10.0029 -4.88687e-05 7.81141e-06 -3.00796e-05 5.79133e-05
81 1 1.4887 3.25252 1.71778 -2.99727e-06 2.2829e-05 4.816e-05 5.3381e-05
82 1 0.320835 1.92997 3.64841 2.09052e-05 7.9552e-06 -7.24736e-06 2.35125e-05
83 1 2.73405 2.39338 3.71355 1.53642e-06 -1.50507e-05 7.82649e-06 1.70334e-05
84 1 1.58462 1.08328 5.64309 -1.57991e-05 -1.71601e-05 1.97371e-05 3.05554e-05
85 1 3.41584 2.74769 7.72579 -3.60069e-05 5.18059e-05 -4.79996e-05 7.92737e-05
86 1 1.11051 2.05255 7.95271 4.97325e-06 -3.08457e-05 -6.9301e-06 3.20034e-05
87 1 1.91907 2.21427 12.2568 3.97032e-05 1.18285e-05 -1.34152e-05 4.35457e-05
88 1 2.20476 5.62416 2.15327 -3.13758e-05 -3.78248e-06 5.45287e-05 6.30248e-05
89 1 1.01754 4.30702 3.98802 -4.13918e-05 -1.11212e-05 -4.08145e-05 5.91844e-05
90 1 1.7959 6.62854 4.50261 -6.17013e-06 1.95692e-05 -7.02796e-06 2.16891e-05
91 1 2.21898 3.47534 5.88992 0.000129188 -5.34702e-05 0.000171595 0.000221345
92 1 4.28312 4.91088 8.39563 2.05844e-05 1.72849e-05 7.71062e-06 2.79631e-05
93 1 3.19278 3.44247 10.3155 1.63882e-05 6.19895e-05 1.63383e-05 6.61681e-05
94 1 2.022 0.0351032 3.34867 -1.15621e-05 2.52026e-05 -4.03717e-05 4.89768e-05
95 1 3.66906 0.382621 11.9183 -2.48043e-05 -8.25528e-06 -2.25197e-05 3.45042e-05
96 1 1.51696 10.8787 9.48118 4.66493e-05 -3.1245e-05 -6.35444e-05 8.47956e-05
97 1 0.867726 10.8291 5.21937 7.12205e-05 -6.24212e-05 1.17563e-05 9.54305e-05
98 1 11.0044 11.6681 3.23847 -5.09429e-06 4.79692e-05 -4.20285e-05 6.39796e-05
99 1 0.422012 11.828 7.49795 3.37217e-05 -4.36717e-05 -1.17672e-05 5.64166e-05
100 1 0.760054 0.892567 1.34663 -4.39975e-05 -4.89311e-05 3.18767e-05 7.31174e-05
101 1 0.222477 4.08453 12.5512 4.70905e-06 -6.03811e-06 1.40397e-05 1.59921e-05
102 1 1.82148 4.41969 8.37335 -1.94023e-05 -1.59699e-05 2.64162e-05 3.64596e-05
103 1 0.953511 6.44084 0.167696 4.35474e-05 -7.06959e-05 2.4439e-05 8.65538e-05
104 1 0.16146 8.46106 4.91233 3.4559e-05 1.63043e-06 -4.31043e-05 5.52717e-05
105 1 2.62796 4.61717 12.6515 -3.16829e-05 -2.86663e-05 2.85148e-05 5.13678e-05
106 1 0.631298 5.37259 6.38844 6.07891e-06 -5.02474e-05 -1.2225e-05 5.20692e-05
107 1 1.42216 5.39369 10.6555 -3.22098e-06 3.76876e-05 4.59398e-05 5.95079e-05
108 1 1.68748 8.77974 0.564873 1.70987e-05 -1.63709e-05 -1.07809e-05 2.60115e-05
109 1 2.55005 8.9493 4.86592 -2.97e-05 -1.34509e-05 -1.80417e-05 3.72628e-05
110 1 11.084 9.50195 7.1832 3.10896e-05 3.19695e-06 -3.84918e-05 4.95823e-05
111 1 0.898598 8.57029 9.06932 1.258e-05 6.96356e-05 -4.70467e-05 8.49751e-05
112 1 2.45001 11.1116 1.02304 -3.54889e-05 3.44061e-05 -1.21122e-05 5.08915e-05
113 1 1.283 9.79602 2.90797 2.15104e-05 -2.10962e-05 -3.7988e-05 4.84854e-05
114 1 2.54113 6.74375 8.67076 3.81976e-06 3.78449e-07 -1.1918e-05 1.25209e-05
115 1 10.1665 11.4793 11.7358 8.07138e-06 7.32309e-05 4.55741e-05 8.66309e-05
116 1 3.38599 6.93098 0.22729 1.59949e-06 7.48699e-05 3.49916e-05 8.26588e-05
117 1 4.2328 7.06626 4.51524 1.60863e-05 -2.32774e-05 1.26825e-05 3.10073e-05
118 1 5.17869 2.84792 3.80475 1.92889e-05 -3.99774e-05 7.74371e-05 8.92567e-05
119 1 4.00505 1.53428 5.65506 6.30922e-05 3.81853e-05 1.92231e-05 7.6212e-05
120 1 5.92446 2.95523 8.09976 -5.69701e-05 1.11487e-05 1.89391e-05 6.10621e-05
121 1 4.3216 1.2793 9.11395 0.000241496 1.34308e-05 0.000145225 0.000282119
122 1 4.21615 2.81779 12.6935 -0.000179384 8.59932e-05 0.00035501 0.000406946
123 1 3.46423 4.76955 4.1411 4.29586e-05 5.12057e-06 5.85831e-05 7.28261e-05
124 1 5.91024 5.19294 4.16321 3.74921e-05 4.54975e-05 1.82479e-05 6.17144e-05
125 1 4.75944 3.8935 6.04966 -4.39343e-05 -4.82487e-05 9.62742e-05 0.000116305
126 1 6.73486 5.36682 8.45385 -6.15239e-05 5.97986e-06 -1.0226e-06 6.18223e-05
127 1 5.58798 4.23159 10.3389 4.00866e-06 9.48447e-05 -2.60215e-05 9.84313e-05
128 1 5.07779 5.08337 12.69 5.00941e-05 9.81577e-08 4.28252e-06 5.02769e-05
129 1 5.82496 7.3966 0.318744 -9.0236e-05 -8.89731e-06 4.25762e-05 0.000100172
130 1 4.64985 6.08366 2.19761 5.43599e-05 4.4343e-05 3.75595e-05 7.95739e-05
131 1 6.671 7.51563 4.60822 -3.76383e-06 -2.47156e-05 2.11995e-05 3.27787e-05
132 1 5.47534 6.21199 6.48908 1.46282e-05 4.5576e-05 5.39641e-06 4.81692e-05
133 1 3.16604 1.33592 1.47661 5.0648e-05 1.84507e-05 -1.50982e-05 5.59786e-05
134 1 5.23591 2.04497 10.8814 0.000130548 3.81564e-05 -0.000369394 0.000393638
135 1 5.41291 0.503699 7.34459 -1.48083e-05 -1.61703e-05 -5.3332e-06 2.25656e-05
136 1 4.45185 0.498232 3.41266 6.77522e-05 1.46891e-06 -2.69912e-05 7.29455e-05
137 1 3.04101 5.72623 6.43693 -5.27212e-06 -3.76667e-05 1.44328e-05 4.06802e-05
138 1 5.02348 7.22045 8.81783 -2.22268e-05 -4.09929e-06 -1.31142e-06 2.26397e-05
139 1 3.80673 5.91188 10.6973 -1.80308e-05 3.48325e-05 -2.46383e-05 4.6319e-05
140 1 4.13166 9.24558 0.676328 -2.70014e-05 -9.15177e-05 -5.18305e-05 0.000108586
141 1 2.96171 7.93947 2.55425 -4.12419e-05 -4.09448e-06 -2.92764e-05 5.07421e-05
142 1 4.97445 9.3626 4.97127 -1.16289e-05 3.88996e-05 -3.13641e-05 5.13042e-05
143 1 3.71436 8.02887 6.82889 -6.16627e-05 -2.69654e-05 -3.74413e-05 7.70148e-05
144 1 0.535236 7.4613 2.51394 1.90264e-05 -5.08799e-05 1.11789e-05 5.54594e-05
145 1 3.31287 8.99391 9.17011 -2.09103e-05 6.57597e-05 1.27804e-05 7.01778e-05
146 1 4.86262 11.5559 1.1527 1.75229e-05 4.01183e-05 -1.73518e-05 4.70916e-05
147 1 3.71635 10.2591 3.01264 1.30501e-05 1.92057e-05 -4.17426e-05 4.77662e-05
148 1 3.30358 11.2743 5.32641 -9.68782e-06 2.67188e-06 -2.09922e-05 2.32737e-05
149 1 2.08113 9.85865 7.17563 -6.4288e-05 3.45756e-05 -1.88241e-05 7.53842e-05
150 1 3.96136 11.2004 9.66395 -7.40356e-06 -0.000112309 -1.15569e-05 0.000113145
151 1 2.83496 10.0873 11.5319 -2.1662e-05 1.82436e-05 -9.88561e-06 2.99966e-05
152 1 6.18326 0.610359 12.2919 5.61522e-06 2.44764e-05 1.55769e-05 2.95511e-05
153 1 2.12588 7.74894 11.0635 3.43263e-05 -2.12027e-05 2.05409e-05 4.52745e-05
154 1 11.2645 2.97151 5.95493 -5.62049e-05 -4.02559e-05 -1.43141e-05 7.06004e-05
