ITEM: TIMESTEP
0
ITEM: NUMBER OF ATOMS
126
ITEM: BOX BOUNDS pp pp pp
0.0000000000000000e+00 1.1400361000000000e+01
0.0000000000000000e+00 1.2098903999999999e+01
0.0000000000000000e+00 1.2816801000000000e+01
ITEM: ATOMS id type x y z fx fy fz v_fmag
1 1 0.444643 7.04006 4.33481 5.89095e-06 -1.67852e-05 -1.47576e-05 2.31135e-05
2 1 8.75344 7.60143 1.70747 1.02556e-05 -3.52907e-05 9.1345e-06 3.78689e-05
3 1 9.98328 3.99489 12.4962 3.15516e-05 -2.81827e-05 -1.61221e-05 4.52735e-05
4 1 8.92775 5.54342 10.5168 -2.56856e-05 -1.60746e-05 1.56405e-05 3.40994e-05
5 1 5.70383 3.56947 7.16379 2.73589e-06 2.9461e-05 -1.26884e-05 3.21937e-05
6 1 7.69674 5.25864 5.86141 -9.93369e-06 3.96792e-05 2.01192e-05 4.5584e-05
7 1 6.94492 3.49906 2.92175 1.43778e-05 -1.48269e-05 7.76187e-06 2.20636e-05
8 1 8.50004 5.0092 1.48946 1.58325e-05 -2.75415e-05 -3.1459e-05 4.47088e-05
9 1 7.13753 1.50028 11.8208 7.3339e-05 -0.00010385 -8.22544e-05 0.000151424
10 1 8.81614 3.01066 10.2372 -7.87302e-07 -4.2045e-05 -2.65002e-05 4.97058e-05
11 1 5.60447 1.00205 6.88971 -3.13941e-05 4.075e-05 2.67223e-05 5.79675e-05
12 1 7.12934 2.52176 5.3256 -2.22536e-05 1.90329e-05 -1.44237e-05 3.26422e-05
13 1 6.9453 12.0301 4.98087 1.53989e-05 -3.78234e-06 2.0664e-05 2.60467e-05
14 1 8.52593 1.46554 3.46068 -1.39545e-05 4.2088e-06 1.03117e-05 1.78542e-05
15 1 8.40184 0.468307 10.047 -0.0001203 8.72639e-05 0.000170354 0.000226069
16 1 9.94393 0.388685 1.62184 2.9034e-06 1.20332e-06 -5.84738e-06 6.63849e-06
17 1 6.16906 11.2622 11.8997 4.98818e-06 -4.69301e-06 -2.67824e-05 2.76442e-05
18 1 7.21422 11.2263 7.46238 1.10444e-05 -1.85078e-06 -8.68889e-06 1.41739e-05
19 1 8.35902 10.9825 3.11111 -4.75358e-05 -8.07827e-06 -1.28963e-06 4.82345e-05
20 1 6.10117 8.71479 11.8147 -5.52067e-06 1.28838e-05 -1.76639e-06 1.41276e-05
21 1 7.61113 10.204 9.97644 -2.83894e-05 -2.21929e-05 3.95824e-06 3.62512e-05
22 1 6.46636 8.85999 7.92608 -9.78795e-06 3.4279e-05 2.68496e-05 4.46291e-05
23 1 8.65438 10.2012 5.59378 1.50501e-05 1.4843e-05 2.91989e-05 3.60471e-05
24 1 7.35659 8.63302 3.58528 -1.98491e-05 -1.71445e-05 -2.04699e-05 3.32707e-05
25 1 9.81452 9.91852 1.24733 2.3714e-05 -1.34813e-05 6.10889e-05 6.69025e-05
26 1 5.04448 6.47096 12.0823 -1.25769e-05 1.83819e-05 -5.72698e-06 2.29972e-05
27 1 5.08211 9.93342 9.84389 6.57606e-06 6.90068e-06 3.36901e-05 3.50127e-05
28 1 4.10939 5.6307 6.58684 3.01286e-05 5.5045e-05 -1.16871e-06 6.27619e-05
29 1 7.05969 6.0338 3.32505 2.81587e-05 -2.42555e-05 -4.09595e-05 5.53075e-05
30 1 10.4623 8.21193 6.17838 -1.13005e-06 -5.83892e-07 4.17607e-06 4.36549e-06
31 1 6.25629 6.31891 7.7235 2.38662e-05 2.8568e-05 -5.76312e-06 3.76689e-05
32 1 7.48619 7.66612 9.92348 2.43834e-05 -2.59067e-05 3.06577e-05 4.69638e-05
33 1 10.1194 6.59076 12.6357 -9.53344e-06 -5.69221e-06 2.84263e-05 3.05179e-05
34 1 10.0729 7.80476 10.0768 -1.08964e-05 -1.44778e-05 -3.1891e-05 3.66793e-05
35 1 8.86061 6.63226 8.01975 2.95014e-05 -3.8974e-05 -9.59717e-06 4.98138e-05
36 1 9.32883 6.72274 4.07556 3.68004e-06 1.81053e-05 6.45271e-05 6.71199e-05
37 1 11.3991 8.00129 1.80918 5.12283e-06 4.01732e-05 5.3525e-06 4.08506e-05
38 1 0.0457581 5.67216 10.6618 -5.17049e-06 1.2338e-06 1.4101e-05 1.50697e-05
39 1 0.0497713 6.80907 8.1765 3.24231e-05 1.02063e-05 8.11386e-06 3.49466e-05
40 1 7.77327 4.35752 8.33023 -9.69644e-06 2.39454e-05 -1.61995e-06 2.58849e-05
41 1 10.3017 5.62017 6.11171 3.03997e-05 -2.27769e-05 -2.23143e-05 4.40552e-05
42 1 9.12907 4.16449 4.0186 1.42703e-05 4.42297e-05 -1.88849e-05 5.01652e-05
43 1 10.8051 5.58996 2.19325 -3.90094e-05 3.33611e-05 3.22762e-05 6.06337e-05
44 1 10.5248 3.01596 2.22802 7.65371e-06 3.4363e-06 -2.82959e-05 2.95135e-05
45 1 9.74215 1.42512 12.0625 -6.21551e-05 -6.75539e-05 -3.06636e-05 9.67835e-05
46 1 7.91581 7.81909 5.99885 -1.707e-05 4.3302e-05 4.91916e-06 4.68043e-05
47 1 10.252 4.60272 8.55397 1.65122e-05 -2.87368e-05 -2.24368e-05 4.00233e-05
48 1 9.24574 3.30105 6.47745 9.09283e-06 2.8735e-05 -8.20936e-06 3.12374e-05
49 1 9.05829 0.689688 5.98504 -3.35446e-06 2.91834e-05 2.10137e-05 3.61179e-05
50 1 10.6843 2.1466 4.62736 -2.19002e-05 -1.31533e-05 -2.8152e-05 3.80153e-05
51 1 8.67196 11.2956 12.2773 -3.78502e-05 2.89438e-05 -4.69249e-05 6.68755e-05
52 1 9.55242 11.5536 8.17694 0.000114551 -5.5275e-05 -0.000102208 0.000163168
53 1 10.517 11.6827 4.13389 -2.53524e-05 2.62658e-05 -3.66767e-06 3.66891e-05
54 1 8.68948 8.7639 11.9932 2.18155e-05 -3.78121e-05 1.79298e-05 4.71927e-05
55 1 10.1512 10.3765 10.4058 1.26858e-05 -3.86341e-05 1.41189e-05 4.30449e-05
56 1 9.01982 9.15347 8.0746 1.566e-05 2.60413e-05 -5.87952e-07 3.03929e-05
57 1 10.9967 10.7236 6.39785 -1.95233e-05 5.54461e-05 8.13067e-05 0.000100331
58 1 10.0029 9.10533 3.68237 -1.73607e-05 -3.94044e-07 1.16457e-05 2.09087e-05
59 1 0.599714 10.5896 2.36314 -1.86526e-05 -2.69747e-05 -7.5565e-06 3.3655e-05
60 1 7.55021 6.54078 12.4091 3.26396e-05 -2.44399e-05 8.67005e-06 4.16872e-05
61 1 7.73541 1.7732 7.94553 -8.69984e-07 5.41793e-06 -1.06584e-05 1.1988e-05
62 1 4.48035 6.04795 2.95692 -1.05392e-05 7.59692e-06 -1.85728e-05 2.26658e-05
63 1 6.12233 7.54717 1.45021 -5.62299e-07 -9.43886e-06 9.64874e-06 1.35095e-05
64 1 7.40227 4.00915 12.0922 6.15946e-07 5.38482e-06 -2.48851e-05 2.54685e-05
65 1 2.19123 12.0283 0.966756 -1.37797e-05 -1.50717e-05 3.73994e-05 4.26117e-05
66 1 4.22474 2.03093 8.76674 -3.80653e-05 2.67696e-05 1.48382e-05 4.88441e-05
67 1 3.11625 0.809449 6.74864 1.67459e-05 2.30941e-06 -8.2352e-07 1.69244e-05
68 1 3.26835 1.20093 2.98164 3.06583e-06 3.55915e-07 1.85602e-05 1.88151e-05
69 1 4.71005 0.149766 1.03056 -2.18828e-05 -3.07977e-06 -1.55023e-05 2.69938e-05
70 1 5.73053 2.47993 0.780014 -6.99273e-05 4.7484e-06 3.49652e-05 7.83258e-05
71 1 1.45253 10.2573 10.7465 -4.27384e-07 -3.07739e-06 -2.52036e-06 4.00065e-06
72 1 3.33595 11.7292 9.34881 6.13263e-06 7.38858e-06 1.94077e-05 2.16532e-05
73 1 2.0472 10.6384 7.09927 4.33655e-05 -1.36824e-05 2.62822e-05 5.25217e-05
74 1 3.25519 10.7476 2.8321 -2.71533e-05 2.06543e-05 -9.31837e-06 3.53657e-05
75 1 2.88005 9.1214 8.92618 -2.56125e-06 4.09471e-05 1.97511e-05 4.55339e-05
76 1 1.63393 8.16061 6.68106 3.29739e-05 1.09158e-05 -4.06334e-06 3.49706e-05
77 1 3.35332 9.61385 5.19432 -4.3998e-05 1.51088e-05 9.05422e-06 4.73928e-05
78 1 3.3968 4.99625 0.701374 3.2498e-05 6.68377e-06 -5.19958e-06 3.35832e-05
79 1 2.19868 8.50004 2.87866 -2.32936e-05 -1.0824e-05 1.08332e-05 2.78767e-05
80 1 1.25046 7.79006 10.3052 -1.01276e-05 -4.0093e-05 -2.13123e-05 4.65213e-05
81 1 2.62902 6.58306 8.45612 1.68888e-05 2.39954e-05 -1.25166e-05 3.1901e-05
82 1 3.02792 7.09878 4.80543 4.55485e-05 1.45722e-05 -9.33572e-06 4.87255e-05
83 1 1.3829 6.85306 12.7688 -3.37372e-06 3.6194e-05 -1.11843e-06 3.63681e-05
84 1 3.12109 3.40875 6.8466 3.06937e-05 3.35989e-05 -2.64052e-05 5.26139e-05
85 1 0.350932 4.44876 4.25748 3.4573e-05 -2.15737e-05 1.51428e-05 4.34744e-05
86 1 0.491906 1.77766 0.481762 8.35337e-06 1.38348e-06 6.72409e-06 1.08123e-05
87 1 1.97013 0.569045 11.4105 -3.26493e-06 1.61583e-05 9.73726e-06 1.91458e-05
88 1 1.81867 11.8208 4.7284 2.57608e-05 7.03287e-06 -7.23181e-06 2.76655e-05
89 1 0.731465 1.03477 2.83658 1.527e-05 -8.46818e-06 -2.8353e-05 3.32983e-05
90 1 0.192333 9.35779 8.50164 -1.54503e-05 8.2862e-06 -2.58078e-05 3.11996e-05
91 1 0.862205 9.52067 4.68981 3.9396e-05 -1.75601e-05 -2.81385e-05 5.14993e-05
92 1 2.00857 9.51952 0.484955 -3.1586e-05 3.25057e-06 -1.78191e-06 3.18027e-05
93 1 4.67922 9.70309 0.918624 -4.58068e-06 -1.1821e-05 -1.31675e-05 1.82784e-05
94 1 11.2363 8.83573 12.1744 6.22175e-06 -2.9342e-05 1.27311e-05 3.25844e-05
95 1 1.76554 3.37019 2.40549 3.29587e-06 -2.98793e-05 -1.54195e-05 3.37846e-05
96 1 1.86555 2.30452 4.81738 7.05243e-06 7.3952e-06 1.87886e-05 2.13877e-05
97 1 6.43102 5.42047 10.219 2.63513e-05 -3.02162e-05 -5.2154e-06 4.04303e-05
98 1 4.44922 2.31391 5.01929 1.41713e-05 1.77616e-05 -3.57969e-05 4.23995e-05
99 1 5.52381 4.54522 4.76874 -2.01062e-05 2.26923e-05 -5.77578e-06 3.08636e-05
100 1 4.36361 3.49647 2.64923 3.25235e-05 8.19134e-06 -1.61298e-05 3.72162e-05
101 1 5.93743 5.00614 1.11806 -4.91573e-06 2.09857e-06 -2.14011e-06 5.75747e-06
102 1 4.61326 1.24599 11.3473 -2.71942e-05 -9.08439e-06 4.83221e-06 2.90758e-05
103 1 6.31226 2.85404 9.81403 -1.81475e-05 -2.34533e-05 7.42438e-06 3.05697e-05
104 1 4.43595 11.849 4.87762 2.08801e-05 -3.09756e-06 1.68145e-05 2.69871e-05
105 1 5.83439 1.27903 3.14668 1.63645e-05 -2.81102e-05 1.06326e-05 3.42203e-05
106 1 7.24899 0.252689 1.28803 -1.59574e-05 -5.53826e-05 5.09455e-06 5.78604e-05
107 1 8.35853 2.48027 1.07457 2.3273e-06 -8.65499e-07 9.77695e-07 2.66858e-06
108 1 3.67994 10.938 11.802 -6.52397e-05 1.98751e-05 -5.86057e-06 6.84513e-05
109 1 4.61282 10.7298 7.37331 3.63016e-05 1.73605e-05 3.93036e-06 4.04307e-05
110 1 2.95375 4.55333 4.46708 3.64291e-05 -6.11546e-06 -9.81936e-06 3.82217e-05
111 1 5.83682 10.8069 2.97585 2.55818e-05 5.97568e-06 2.51608e-05 3.63758e-05
112 1 5.95216 0.228467 9.41404 -4.80138e-05 1.18543e-05 -2.00259e-05 5.33562e-05
113 1 4.23292 8.11459 7.0513 -4.73622e-06 3.583e-05 1.65936e-06 3.61797e-05
114 1 5.97881 9.67364 5.47746 4.30571e-06 1.73401e-05 5.20884e-06 1.86105e-05
115 1 4.7233 8.57185 3.31572 -4.6673e-06 -7.20717e-06 -3.42603e-05 3.53199e-05
116 1 7.26415 9.77254 1.08465 -4.57905e-05 4.75027e-06 2.8449e-05 5.41173e-05
117 1 2.94766 5.93105 10.9107 -1.96074e-05 -4.69568e-05 9.1585e-07 5.08943e-05
118 1 4.83639 7.36848 9.58922 -6.68475e-07 1.55656e-05 1.25951e-05 2.00343e-05
119 1 1.4928 5.60479 6.30433 4.97119e-05 -2.52659e-06 -1.98096e-06 4.98154e-05
120 1 5.65759 7.08729 5.17819 1.17289e-05 4.78739e-05 -8.29774e-06 4.99833e-05
121 1 1.91088 5.99024 2.53648 -6.21531e-06 -1.85727e-05 -3.27424e-05 3.81529e-05
122 1 3.5676 7.47769 1.06205 1.21081e-05 -1.90724e-05 -2.5059e-05 3.3739e-05
123 1 4.85673 3.95395 11.6112 -2.69866e-05 -3.43806e-05 -2.44194e-05 5.00661e-05
124 1 4.38516 4.71728 9.00516 -1.43119e-05 7.96207e-06 -1.65964e-05 2.33167e-05
125 1 3.44384 8.44216 11.4659 -8.1704e-06 -2.99824e-05 1.19895e-05 3.33084e-05
126 1 11.3843 11.374 12.6102 -4.46446e-05 -3.59924e-05 2.36536e-05 6.2033e-05
