ITEM: TIMESTEP
0
ITEM: NUMBER OF ATOMS
145
ITEM: BOX BOUNDS pp pp pp
0.0000000000000000e+00 1.1396901000000000e+01
0.0000000000000000e+00 1.2680864000000000e+01
0.0000000000000000e+00 1.2228524999999999e+01
ITEM: ATOMS id type x y z fx fy fz v_fmag
1 1 0.049158 3.31023 8.78911 2.89519e-05 2.54563e-05 5.51469e-06 3.89441e-05
2 1 8.96861 1.43856 0.343725 3.41964e-06 1.70018e-05 -1.96593e-05 2.62153e-05
3 1 7.68603 0.554708 2.25652 -1.68243e-05 -2.07594e-05 1.80739e-05 3.22595e-05
4 1 10.5043 1.10368 4.37351 -3.02903e-05 2.42296e-05 1.03924e-05 4.0157e-05
5 1 9.20914 0.216332 6.27692 -1.28104e-05 1.09206e-05 2.78381e-05 3.25319e-05
6 1 9.67395 1.31411 8.42429 9.18365e-05 3.88613e-05 -0.000106472 0.000145878
7 1 8.59323 0.357131 10.3497 -2.82627e-05 -1.06113e-05 0.000110052 0.000114117
8 1 4.87045 12.6083 0.0589592 -3.69456e-05 2.59289e-05 6.64422e-06 4.56227e-05
9 1 10.6306 3.3938 0.620085 -2.74194e-05 -1.7153e-05 -1.46151e-05 3.54915e-05
10 1 9.82756 3.66271 4.78847 -6.64445e-05 1.3152e-05 1.02751e-05 6.85086e-05
11 1 8.52663 2.70666 6.62358 5.40283e-05 8.81952e-07 2.30667e-05 5.87529e-05
12 1 9.00671 3.71876 8.8124 -2.18131e-05 -3.88538e-06 2.98525e-06 2.23566e-05
13 1 10.2505 2.28377 10.641 3.70151e-05 -2.75669e-06 3.53007e-05 5.12236e-05
14 1 9.97148 5.92706 0.84402 -3.20215e-06 3.02181e-07 -1.26749e-05 1.30766e-05
15 1 8.7012 5.05864 2.86604 -2.84887e-05 1.63315e-05 1.09932e-05 3.46291e-05
16 1 9.36083 2.53555 2.57098 1.32216e-06 -1.22549e-05 1.87618e-05 2.24485e-05
17 1 9.16521 6.159 5.11112 1.33143e-05 -4.06993e-06 -3.87884e-05 4.12114e-05
18 1 2.92977 0.127526 8.54519 2.0297e-05 -9.41001e-06 -4.44129e-05 4.97295e-05
19 1 2.06019 10.2131 0.372196 1.78056e-05 -3.04284e-05 3.53814e-05 4.99477e-05
20 1 5.42307 5.65086 7.03355 4.74474e-05 1.59049e-06 -2.91542e-05 5.57114e-05
21 1 5.87714 6.72233 9.24988 2.93749e-05 7.25037e-06 2.80705e-05 4.12723e-05
22 1 7.07743 5.37226 11.0571 4.67897e-05 -2.2029e-06 -1.60365e-05 4.95105e-05
23 1 6.841 8.90352 1.39576 -1.74684e-05 7.05686e-06 2.23925e-05 2.92638e-05
24 1 5.56597 7.96415 3.30249 4.16849e-05 -1.57684e-05 6.27956e-06 4.50079e-05
25 1 5.92565 8.97841 5.5734 -6.81484e-06 -4.2966e-06 2.1597e-05 2.30507e-05
26 1 3.94085 0.073627 4.26142 3.61368e-06 2.22514e-05 1.44814e-06 2.25894e-05
27 1 4.62709 8.08281 7.48329 7.39971e-08 9.76956e-08 -3.20097e-05 3.20099e-05
28 1 3.67959 8.43509 11.5546 -2.22311e-06 -1.82768e-05 -1.48851e-05 2.3676e-05
29 1 6.06055 11.2739 1.91661 -1.39657e-05 -1.21496e-05 5.35521e-05 5.66611e-05
30 1 4.76704 10.3675 3.83473 1.86044e-05 3.49496e-05 -1.07977e-05 4.10389e-05
31 1 5.07688 11.3751 6.14821 2.72698e-06 1.14339e-05 9.19505e-06 1.49238e-05
32 1 3.69171 10.4196 8.1277 -2.75589e-05 1.18301e-05 4.18231e-06 3.02809e-05
33 1 3.47601 11.1617 10.5694 -3.2808e-05 1.47453e-05 2.59985e-05 4.43815e-05
34 1 5.07947 9.15274 9.72035 -5.40245e-05 -4.94113e-06 8.27587e-05 9.89548e-05
35 1 7.85685 5.18173 6.95754 -1.42506e-05 1.7244e-05 1.06123e-05 2.476e-05
36 1 8.43871 6.1877 9.13802 4.9106e-05 -1.05837e-05 -5.30443e-05 7.30555e-05
37 1 9.54428 4.82722 10.9181 2.69237e-05 -2.19585e-05 2.63985e-05 4.36342e-05
38 1 11.0892 4.4749 2.82159 -3.01494e-05 3.35891e-05 1.19567e-05 4.66924e-05
39 1 10.2803 4.81696 7.07198 2.67807e-05 2.28275e-05 -1.71902e-05 3.91638e-05
40 1 0.922556 5.473 0.939032 -3.94431e-05 4.18887e-06 1.54222e-05 4.25576e-05
41 1 10.4668 6.98635 3.04521 -3.38126e-05 5.57487e-06 -4.60052e-05 5.73659e-05
42 1 9.6387 7.38725 7.42532 1.50187e-05 3.01505e-05 -3.71609e-05 5.01553e-05
43 1 10.3576 9.33334 10.2735 2.23326e-05 1.38615e-05 4.6951e-05 5.38078e-05
44 1 10.9505 2.23581 6.58419 -5.59517e-05 2.6194e-05 6.50915e-05 8.9742e-05
45 1 8.991 7.3424 11.2592 2.30172e-05 1.17666e-05 -2.20544e-05 3.398e-05
46 1 10.0243 10.4815 5.90723 7.3791e-07 -2.39521e-05 2.94205e-05 3.79449e-05
47 1 8.96609 9.73852 7.93108 -2.19089e-05 2.71556e-05 -3.81307e-06 3.50994e-05
48 1 9.96123 11.5469 11.7561 -5.15911e-05 1.54432e-05 1.43081e-05 5.57212e-05
49 1 8.20747 9.75198 11.6768 -1.74164e-05 -2.19086e-05 -1.04269e-05 2.9867e-05
50 1 8.85352 11.8371 4.02754 -1.19083e-05 9.96189e-06 2.05267e-05 2.57369e-05
51 1 7.94326 12.0337 8.16398 6.10066e-06 3.76099e-06 -1.03108e-05 1.25569e-05
52 1 9.72318 9.44463 3.51381 2.7773e-05 4.35677e-07 -2.02614e-05 3.4381e-05
53 1 0.375909 1.94033 2.42143 -8.78092e-06 -2.78187e-05 -5.64125e-06 2.97121e-05
54 1 11.3941 0.833188 0.148666 4.488e-06 -3.34398e-05 -9.75056e-06 3.51203e-05
55 1 10.1339 12.6734 2.0694 -9.12671e-06 -3.94477e-05 3.7347e-05 5.50837e-05
56 1 9.36191 8.39255 1.24529 -2.82584e-06 1.10467e-05 -4.20783e-05 4.35958e-05
57 1 8.03592 7.51393 3.21988 -1.08565e-05 1.45477e-05 -3.11617e-05 3.60631e-05
58 1 8.41136 8.58075 5.50828 1.55939e-05 -4.38675e-06 -2.09174e-06 1.63337e-05
59 1 7.14466 7.61273 7.35514 2.56628e-05 -1.10376e-05 -3.18729e-05 4.23827e-05
60 1 7.65607 8.60547 9.565 -3.44844e-05 -2.43933e-05 3.25363e-05 5.3318e-05
61 1 6.33051 7.82235 11.4551 -3.6875e-06 2.88951e-05 -1.50131e-05 3.27706e-05
62 1 8.5898 10.7885 1.7035 -6.11294e-06 -8.25327e-06 3.07384e-05 3.24089e-05
63 1 7.24851 9.90678 3.66566 -2.23401e-05 -1.4744e-05 -1.8891e-05 3.27618e-05
64 1 7.57093 10.935 5.95139 -1.79912e-05 3.35765e-05 6.25964e-05 7.3276e-05
65 1 6.34915 9.99734 7.83549 1.58593e-05 2.09739e-05 -2.58617e-05 3.68816e-05
66 1 6.84403 11.0512 10.0566 2.32068e-05 -1.83999e-06 6.87326e-05 7.2568e-05
67 1 5.52434 10.2366 11.912 -1.21895e-06 2.49972e-05 -4.47469e-05 5.12702e-05
68 1 6.39109 12.3167 4.18371 -2.61787e-05 1.42605e-05 4.28474e-06 3.01172e-05
69 1 5.37903 12.3623 8.44703 -2.31599e-05 -2.86578e-05 4.05211e-06 3.70684e-05
70 1 7.36914 12.143 0.0224243 4.17499e-05 5.06587e-05 -5.23145e-05 8.39414e-05
71 1 6.71894 6.57099 5.11574 9.81198e-07 -1.81546e-06 -1.08622e-05 1.10565e-05
72 1 11.0798 10.2352 1.30681 -2.30668e-05 1.91661e-05 -2.78054e-05 4.08969e-05
73 1 6.25968 5.52824 2.90229 1.46471e-05 1.32677e-06 -2.7253e-05 3.09681e-05
74 1 7.80183 2.84844 10.7448 4.3572e-05 6.52619e-06 -1.96816e-05 4.82543e-05
75 1 0.746491 8.92088 3.15359 -2.84295e-06 2.5086e-05 -3.74658e-05 4.51783e-05
76 1 10.8456 8.05574 5.32121 1.86637e-05 3.96881e-05 -1.92565e-05 4.78988e-05
77 1 1.00607 9.92132 5.82757 3.41524e-06 -2.32363e-05 -3.85478e-05 4.51389e-05
78 1 0.534238 6.64488 7.36711 2.65568e-05 -1.86794e-05 2.06054e-05 3.84547e-05
79 1 11.0751 6.75239 9.84824 1.0331e-05 -6.76119e-06 -1.04916e-05 1.62024e-05
80 1 1.15617 12.1354 1.98974 3.33277e-06 -5.57054e-06 -1.17427e-05 1.34175e-05
81 1 0.510983 4.37065 10.992 6.78851e-06 -1.89442e-05 8.99792e-06 2.20438e-05
82 1 11.2887 11.3186 3.93978 -2.79714e-06 1.68979e-05 -8.69433e-07 1.71499e-05
83 1 4.07115 2.42161 0.467092 1.48911e-05 2.77375e-05 9.93242e-06 3.30116e-05
84 1 2.79229 1.44241 2.35151 -3.78261e-05 1.38229e-05 -1.40678e-05 4.2659e-05
85 1 5.63274 2.07791 4.5406 -2.91585e-05 -9.60708e-06 1.15189e-05 3.27902e-05
86 1 4.30573 1.11739 6.52278 -5.21308e-05 2.57547e-06 -2.28966e-05 5.69957e-05
87 1 4.87965 2.26341 8.61151 2.93511e-05 -1.26118e-05 -2.62009e-05 4.13162e-05
88 1 3.71395 1.31824 10.5122 4.69199e-05 -6.56673e-06 3.03393e-05 5.62589e-05
89 1 0.199476 12.3695 6.36414 -1.73744e-05 -1.36047e-05 7.16007e-06 2.31996e-05
90 1 5.75521 4.4788 0.734587 -7.98591e-06 3.49802e-06 8.17672e-06 1.19528e-05
91 1 1.68908 5.25988 9.0666 1.1354e-05 1.52917e-05 7.18343e-06 2.03556e-05
92 1 1.82363 7.52136 5.37852 -1.30505e-05 -1.92041e-05 1.98183e-06 2.33032e-05
93 1 1.65646 2.90004 0.551974 -4.4356e-05 -7.28408e-06 1.99683e-05 4.91859e-05
94 1 1.51412 0.546466 4.32558 -4.24401e-05 2.70542e-05 -1.10158e-06 5.03419e-05
95 1 3.22277 2.52954 4.58909 -5.4151e-05 2.75365e-05 -5.62198e-06 6.10098e-05
96 1 1.91575 1.61947 6.56925 1.43573e-05 -1.00407e-05 -3.41845e-05 3.84126e-05
97 1 2.46637 2.75053 8.68313 -1.86295e-05 -1.72889e-05 1.3105e-05 2.85956e-05
98 1 1.30134 1.84054 10.6061 3.99398e-05 -3.95286e-05 -4.76406e-05 7.36704e-05
99 1 0.147577 5.57189 5.06122 -3.4094e-05 -1.3872e-06 -2.56254e-06 3.42183e-05
100 1 3.30393 4.99202 0.813199 -8.87199e-06 9.6703e-06 -1.7846e-05 2.21519e-05
101 1 2.56889 5.0384 4.92736 1.36954e-05 2.3975e-06 -5.92223e-06 1.51124e-05
102 1 0.827948 3.05176 4.63921 4.25029e-05 2.50713e-05 -4.03058e-05 6.37152e-05
103 1 1.28921 4.1558 6.8414 2.5409e-06 4.01008e-05 9.32735e-06 4.12496e-05
104 1 2.92123 3.86999 10.8751 4.45902e-05 -3.29498e-05 -3.52558e-05 6.57034e-05
105 1 2.34357 7.64846 1.22878 3.2091e-05 -2.97511e-05 3.15404e-05 5.39422e-05
106 1 1.43145 6.43868 3.15202 -2.4042e-06 -1.72711e-05 -4.42936e-05 4.76025e-05
107 1 2.1016 3.95979 2.72848 -4.11914e-05 3.64071e-06 -1.68978e-05 4.46713e-05
108 1 4.50517 3.49261 2.65099 -3.73976e-05 -1.5304e-06 -1.51216e-05 4.03681e-05
109 1 4.98682 4.56952 4.82523 -1.60096e-05 8.3317e-06 4.20762e-05 4.57836e-05
110 1 3.70686 3.6477 6.75363 2.21705e-05 -4.61113e-05 -4.0141e-05 6.50314e-05
111 1 0.120003 7.98491 12.2125 1.19715e-05 -1.14108e-05 4.92948e-08 1.65386e-05
112 1 0.592847 0.725321 8.59294 -1.8926e-05 -3.29196e-07 3.36397e-05 3.85996e-05
113 1 2.41989 0.270864 0.0617109 4.93493e-05 -5.77578e-06 -2.37149e-05 5.50555e-05
114 1 6.51659 1.95438 0.422583 1.02522e-05 -2.12299e-05 5.54795e-08 2.35758e-05
115 1 5.23217 1.01138 2.32083 -6.68997e-06 2.64704e-05 2.76065e-06 2.74419e-05
116 1 8.06267 1.61578 4.47413 -1.71831e-05 1.73168e-06 1.99004e-05 2.63493e-05
117 1 0.914581 11.7014 10.6718 -2.76829e-05 -7.65027e-05 3.02215e-05 8.67891e-05
118 1 6.73059 0.682551 6.4197 -6.78043e-06 4.34791e-06 2.56207e-05 2.6857e-05
119 1 6.15111 0.856564 10.4599 3.87392e-05 -1.42577e-05 -1.30518e-05 4.32939e-05
120 1 8.21785 3.96915 0.68143 -1.017e-05 -1.21551e-05 -1.53521e-05 2.2065e-05
121 1 6.93033 3.035 2.6035 -1.83646e-05 -6.71003e-06 1.38977e-05 2.39881e-05
122 1 7.40674 4.11372 4.76499 2.22324e-06 -1.42579e-05 -1.90616e-05 2.39076e-05
123 1 6.12093 3.18602 6.6887 -2.20239e-05 2.97106e-05 3.01222e-05 4.76983e-05
124 1 6.59823 4.27126 8.88002 5.09129e-05 3.26938e-06 -3.096e-06 5.11116e-05
125 1 7.2771 1.7937 8.54445 -2.62631e-05 3.40781e-05 2.00257e-05 4.74562e-05
126 1 1.17123 10.8715 8.27024 2.10679e-05 -3.62222e-05 1.75269e-06 4.19401e-05
127 1 2.61483 11.8299 6.24235 -1.94482e-06 -5.69504e-06 4.23799e-06 7.36046e-06
128 1 2.31106 10.7915 3.86228 2.13309e-05 1.89889e-05 -1.032e-05 3.03659e-05
129 1 4.15052 4.76296 8.9504 -2.1255e-06 -3.05263e-05 2.34168e-05 3.8532e-05
130 1 5.35604 3.3671 10.7953 7.04923e-06 -1.94237e-05 -2.16354e-05 2.99176e-05
131 1 4.96635 6.98701 1.08988 -4.1753e-06 -1.81804e-05 2.45864e-05 3.08618e-05
132 1 3.82462 5.98643 3.00068 -3.20187e-05 6.82643e-06 -7.35426e-06 3.35541e-05
133 1 4.27156 7.02066 5.22933 2.59429e-05 -2.52939e-05 1.54273e-05 3.93804e-05
134 1 2.97227 6.13374 7.14542 4.55197e-06 -1.33246e-05 -1.1523e-05 1.81946e-05
135 1 3.32805 7.25609 9.3734 9.09984e-06 -1.00887e-05 9.36481e-06 1.65012e-05
136 1 4.53935 5.90495 11.1377 2.00018e-05 -2.66045e-05 -6.87507e-06 3.39873e-05
137 1 4.2524 9.37232 1.56275 7.20123e-07 1.29505e-05 2.34074e-05 2.67608e-05
138 1 3.12208 8.41072 3.48595 1.18313e-06 4.13553e-05 -2.88149e-05 5.04178e-05
139 1 3.44189 9.44845 5.77777 1.6244e-05 -6.27662e-06 1.72433e-05 2.4507e-05
140 1 2.0152 8.56396 7.74344 -1.63597e-05 -2.3948e-05 -3.01677e-05 4.18478e-05
141 1 1.57594 9.10612 10.2492 1.99119e-05 -2.01952e-05 -1.45258e-05 3.18642e-05
142 1 1.96665 6.50464 11.2246 1.38635e-05 -2.17626e-05 1.28315e-05 2.88176e-05
143 1 3.5854 11.7083 1.94288 2.04378e-05 2.6564e-05 -1.72228e-05 3.76825e-05
144 1 7.53512 6.47726 0.993 -8.76396e-06 -1.33437e-05 2.78946e-05 3.21398e-05
145 1 10.2739 11.5876 9.05818 5.60762e-06 -1.24496e-05 2.58496e-05 2.92342e-05
