ITEM: TIMESTEP
0
ITEM: NUMBER OF ATOMS
125
ITEM: BOX BOUNDS pp pp pp
0.0000000000000000e+00 1.1436527999999999e+01
0.0000000000000000e+00 1.1745825000000000e+01
0.0000000000000000e+00 1.1261291999999999e+01
ITEM: ATOMS id type x y z fx fy fz v_fmag
1 1 11.0175 0.790697 9.45988 -1.30404e-05 3.56949e-05 -9.62128e-06 3.92013e-05
2 1 8.52675 2.34995 7.80217 -3.74856e-05 3.94573e-05 -1.64642e-05 5.68605e-05
3 1 9.64917 3.94847 6.16069 6.40581e-06 -3.39197e-05 1.45438e-05 3.7458e-05
4 1 5.73074 0.931593 2.72649 6.15007e-07 8.49369e-06 1.84244e-05 2.02973e-05
5 1 6.78383 2.68616 1.16792 -1.29005e-05 -3.42306e-06 3.04319e-05 3.32302e-05
6 1 8.54377 0.311514 9.26096 3.03062e-05 -1.50071e-05 1.15153e-05 3.57251e-05
7 1 7.57428 0.153872 6.89263 -5.35714e-06 -1.82203e-05 -2.06587e-05 2.80617e-05
8 1 8.40817 0.908749 0.516435 1.09669e-05 9.20757e-07 -1.84192e-05 2.14566e-05
9 1 5.05948 11.408 6.74562 -2.22537e-05 -3.6869e-05 1.85177e-05 4.68771e-05
10 1 5.09337 10.7822 4.26532 -1.23878e-06 3.06615e-05 4.59556e-05 5.52592e-05
11 1 4.9968 10.3791 1.82686 9.41062e-06 3.27477e-05 -5.65724e-06 3.45395e-05
12 1 5.00614 9.92658 10.6482 -9.02926e-06 2.94016e-05 4.44714e-06 3.10767e-05
13 1 5.07237 9.31316 8.18155 -2.14172e-05 -3.14721e-06 3.60628e-05 4.20609e-05
14 1 6.53962 9.59781 6.04004 -4.45828e-05 2.98238e-05 2.45003e-05 5.8969e-05
15 1 5.57016 7.32603 5.1314 -1.15738e-05 1.57653e-05 2.11687e-05 2.88204e-05
16 1 6.60095 9.00625 3.54533 6.48372e-06 -8.99851e-06 7.89434e-06 1.36137e-05
17 1 6.68061 8.54058 1.10441 -8.6174e-06 1.25622e-05 3.70113e-05 4.00238e-05
18 1 6.50721 8.1478 9.92958 2.43348e-05 -1.66526e-05 -8.303e-06 3.06338e-05
19 1 5.51121 5.91649 9.02456 -1.47111e-06 7.50996e-06 -1.43485e-05 1.62617e-05
20 1 6.59479 7.52992 7.43841 -1.08401e-05 4.73733e-05 -5.9163e-06 4.89565e-05
21 1 7.131 5.50843 4.44528 3.48024e-06 -7.96987e-06 -9.19403e-06 1.26555e-05
22 1 8.16576 7.22565 2.84978 -2.82416e-06 1.58639e-05 1.22272e-05 2.02273e-05
23 1 5.88907 6.23712 0.198175 -4.32447e-05 3.31029e-05 1.437e-05 5.63241e-05
24 1 5.41839 3.93529 10.5959 -1.70219e-06 -3.04427e-06 1.18263e-05 1.23299e-05
25 1 7.00262 4.11881 8.42788 2.21184e-05 -6.64281e-05 -2.21424e-05 7.34316e-05
26 1 8.11797 5.72054 6.78102 6.92365e-06 7.63673e-06 -2.26619e-05 2.48961e-05
27 1 6.24816 3.25755 3.54911 -5.39079e-06 1.64898e-05 1.90937e-05 2.57981e-05
28 1 7.33634 4.95541 1.97658 -3.73564e-06 1.02507e-05 3.34837e-07 1.09153e-05
29 1 9.46156 2.57416 10.1832 -1.79352e-05 3.20403e-05 -6.33272e-06 3.72606e-05
30 1 9.76495 5.45096 2.16683 -3.49357e-05 1.59807e-06 -8.42952e-06 3.59738e-05
31 1 8.72965 3.67952 3.83355 -1.37639e-06 1.14216e-05 -2.21443e-06 1.17154e-05
32 1 10.599 6.17711 6.97464 4.2926e-05 1.65738e-05 1.06549e-05 4.72319e-05
33 1 9.9764 10.8773 11.0426 1.21695e-05 -1.95357e-05 -1.63718e-05 2.82449e-05
34 1 10.0594 10.2741 8.5245 -7.77469e-06 1.35247e-05 1.97854e-06 1.5725e-05
35 1 10.5352 8.23222 5.50019 -1.64409e-05 -3.57593e-05 -1.55698e-05 4.23255e-05
36 1 10.4475 6.81352 9.43557 1.45607e-05 -6.24429e-05 -6.53774e-05 9.15715e-05
37 1 10.8379 7.1938 0.575981 1.87001e-05 -3.49219e-05 -1.71176e-05 4.31537e-05
38 1 11.1481 4.16929 3.85922 4.60041e-05 -1.50334e-05 -5.43812e-05 7.2799e-05
39 1 11.0089 2.8173 7.97585 -1.39215e-05 -2.14592e-05 -2.92046e-05 3.88229e-05
40 1 8.21267 1.41697 3.03989 4.79932e-05 1.19222e-05 -2.07244e-05 5.36189e-05
41 1 9.26268 3.16255 1.42636 6.62971e-06 9.86946e-06 -1.32251e-05 1.77838e-05
42 1 11.0747 2.20081 5.36295 -6.24304e-05 2.02993e-05 -7.47658e-05 9.94964e-05
43 1 9.87788 11.3415 2.2253 3.885e-05 2.44823e-06 -1.45936e-05 4.15727e-05
44 1 6.06881 11.5952 9.05246 1.83263e-05 1.14894e-05 1.32015e-05 2.53405e-05
45 1 7.57564 11.2096 4.44977 -3.42384e-05 7.02957e-05 3.06446e-05 8.39812e-05
46 1 7.00037 2.11329 9.95293 -1.89664e-06 2.43852e-05 1.62043e-05 2.93397e-05
47 1 7.4397 10.8598 2.01932 6.0873e-06 -2.42379e-05 -1.57334e-05 2.95309e-05
48 1 7.57383 9.80429 8.33071 3.15735e-05 -6.57072e-05 4.54356e-05 8.58994e-05
49 1 9.04753 10.0665 6.1963 -3.69666e-05 -1.73137e-05 6.221e-06 4.12916e-05
50 1 8.0519 7.79492 5.31719 -2.46431e-05 1.26183e-06 8.19223e-07 2.4689e-05
51 1 9.09274 9.47299 3.73085 2.27387e-05 -5.73895e-05 -1.5956e-05 6.37589e-05
52 1 9.1212 9.02493 1.29333 2.23557e-05 1.43811e-05 9.08769e-06 2.80923e-05
53 1 9.00108 8.61852 10.1118 -1.27761e-05 3.22235e-05 4.31665e-05 5.53618e-05
54 1 7.97119 6.36536 9.24249 -2.57518e-05 -9.62322e-06 1.02835e-05 2.93515e-05
55 1 9.076 7.99314 7.63126 1.31221e-05 -6.92432e-07 -3.13696e-05 3.40106e-05
56 1 9.59521 5.97535 4.64021 -6.48562e-08 2.50108e-05 1.66661e-05 3.0055e-05
57 1 10.6423 7.6673 3.02466 -1.81456e-05 2.11329e-05 -3.47504e-05 4.45359e-05
58 1 8.38595 6.71782 0.393467 8.73425e-06 1.22218e-05 -1.85831e-05 2.38954e-05
59 1 7.85994 4.40402 10.8317 -2.5626e-05 3.74025e-05 -4.00458e-06 4.55157e-05
60 1 9.48048 4.57461 8.66972 2.56822e-05 -5.35917e-06 -2.46585e-05 3.60047e-05
61 1 7.4974 10.3869 10.8359 6.0322e-05 -1.6088e-05 1.66693e-06 6.24528e-05
62 1 9.98066 0.128094 4.61559 3.67788e-05 -2.57829e-05 -5.70165e-05 7.25832e-05
63 1 6.01562 1.9096 7.60628 6.56745e-06 2.32986e-06 6.31436e-05 6.3527e-05
64 1 3.28028 0.4657 2.55378 2.27506e-05 9.47506e-06 1.76332e-05 3.03034e-05
65 1 0.085475 9.959 3.94176 1.12277e-05 -1.70209e-05 -3.9775e-05 4.4697e-05
66 1 0.116132 9.48877 1.48859 5.52189e-06 -2.97301e-06 -3.16756e-05 3.22905e-05
67 1 0.0441839 9.0821 10.3002 -3.47761e-06 3.61542e-05 6.25766e-07 3.63264e-05
68 1 0.118611 8.45172 7.81246 -1.07128e-06 -1.54451e-05 9.65334e-06 1.82451e-05
69 1 1.56686 8.68607 5.67481 -2.1417e-05 -2.84336e-05 1.46427e-05 3.84911e-05
70 1 0.626036 6.41132 4.77337 1.66701e-05 1.24123e-05 5.47898e-06 2.14936e-05
71 1 1.64688 8.10292 3.18489 6.11369e-05 5.69788e-05 -1.57286e-05 8.50394e-05
72 1 1.80685 7.67215 0.740847 -2.97002e-06 6.63392e-06 1.60865e-05 1.76523e-05
73 1 1.48167 7.26852 9.58662 4.66218e-05 -6.82134e-05 -4.85445e-05 9.58292e-05
74 1 0.525728 5.03188 8.82413 -5.55857e-05 6.41209e-05 -1.25988e-05 8.57904e-05
75 1 1.63702 6.61671 7.12911 1.93543e-06 -2.06368e-06 -9.29068e-06 9.71192e-06
76 1 2.19313 4.60998 4.02384 9.11565e-06 -4.61338e-06 -1.87317e-05 2.13367e-05
77 1 3.21773 6.25822 2.35764 3.01914e-05 1.65845e-05 -8.17081e-06 3.54024e-05
78 1 0.492077 3.04963 10.3658 -2.3076e-06 -1.8365e-05 6.72701e-06 1.96939e-05
79 1 2.0375 3.27212 8.13021 5.16959e-05 -1.95205e-05 -2.25783e-05 5.96934e-05
80 1 3.15406 4.83569 6.41842 3.51489e-05 -2.41564e-05 -2.18644e-05 4.79274e-05
81 1 1.23814 2.34145 3.19321 -2.38566e-06 1.83703e-05 -1.5689e-05 2.42756e-05
82 1 10.3524 4.86053 11.0583 -7.69594e-05 9.35495e-06 -3.4062e-05 8.46787e-05
83 1 2.05488 1.2482 9.60916 -4.2832e-05 1.82209e-05 -1.81826e-05 4.99719e-05
84 1 1.06009 1.04394 7.25009 -2.87133e-05 1.77433e-05 -3.38316e-05 4.77896e-05
85 1 2.16419 2.62536 5.56272 -1.71556e-05 1.13751e-05 -7.54298e-06 2.19227e-05
86 1 10.8914 1.41722 0.783711 -1.67372e-05 5.61646e-06 1.23955e-05 2.15714e-05
87 1 1.10398 10.7259 8.70147 1.33697e-06 1.91822e-05 -5.73053e-06 2.00644e-05
88 1 1.15781 0.403843 4.80176 9.79467e-06 -1.84183e-05 2.0969e-05 2.95782e-05
89 1 1.00433 11.3319 11.2058 5.50321e-05 -4.68391e-06 -2.90884e-05 6.24228e-05
90 1 0.774634 5.79782 2.26462 9.35308e-06 -5.15059e-06 -2.34569e-06 1.09321e-05
91 1 0.672092 4.39066 6.25658 -8.50328e-06 -3.69344e-05 -3.63658e-05 5.25255e-05
92 1 0.0670141 10.5298 6.38047 -2.15748e-05 1.279e-05 1.82953e-05 3.10447e-05
93 1 3.46217 11.7424 0.101388 1.8651e-05 -1.00036e-05 1.19392e-05 2.42997e-05
94 1 3.67404 0.843554 4.9578 -1.35468e-05 -4.27088e-05 8.50824e-06 4.56064e-05
95 1 3.58491 11.164 8.87543 -1.12272e-05 1.5444e-05 1.50294e-05 2.42992e-05
96 1 4.34954 2.19813 0.971278 2.9491e-05 -2.0553e-06 6.70856e-06 3.03141e-05
97 1 6.19601 1.27892 5.12026 5.09501e-05 -0.000120874 4.8348e-06 0.000131263
98 1 5.9438 0.422703 0.270885 1.63709e-05 2.63625e-06 -6.77272e-06 1.79117e-05
99 1 2.56214 10.9563 6.56595 -1.51351e-05 -2.06097e-05 2.12699e-05 3.32601e-05
100 1 2.60199 10.339 4.08895 -3.96738e-06 1.62818e-06 2.19025e-05 2.23184e-05
101 1 2.5605 9.92837 1.64372 -2.05838e-05 2.77376e-05 1.33357e-06 3.45666e-05
102 1 2.53146 9.50664 10.4553 2.73828e-05 -3.67247e-06 -1.04942e-05 2.95539e-05
103 1 2.60675 8.87658 7.99706 6.95906e-05 2.0067e-05 3.08273e-05 7.87138e-05
104 1 4.05224 9.13187 5.85545 -4.77711e-06 2.67698e-05 5.5667e-05 6.19537e-05
105 1 3.08909 6.86799 4.9206 -1.12794e-06 -7.79732e-06 -2.0529e-05 2.19888e-05
106 1 4.11927 8.53922 3.36018 -3.95768e-05 3.34155e-05 -3.5701e-05 6.29085e-05
107 1 4.24104 8.0772 0.934221 9.08886e-06 6.6299e-05 4.83885e-05 8.25809e-05
108 1 3.99329 7.63757 9.8155 -1.09139e-05 -7.27694e-05 2.21567e-05 7.68467e-05
109 1 7.24527 3.39065 5.90246 6.89591e-06 1.80736e-05 3.26279e-05 3.79314e-05
110 1 3.01847 5.47254 9.01922 -1.79094e-05 4.57487e-05 5.15648e-06 4.93992e-05
111 1 4.64957 5.07331 4.21967 1.89492e-06 -3.54994e-05 3.58207e-05 5.04671e-05
112 1 5.70179 6.74609 2.65615 -1.51901e-06 -1.90967e-05 9.30716e-06 2.12982e-05
113 1 1.44532 5.3237 11.1958 -5.25032e-05 2.47531e-06 -6.24378e-06 5.2931e-05
114 1 2.98703 3.49982 10.5263 -3.97024e-05 -4.52957e-06 3.40143e-05 5.24764e-05
115 1 4.5016 3.70098 8.24765 2.74564e-05 -6.32632e-05 -2.7466e-06 6.90191e-05
116 1 5.66803 5.23643 6.55784 -3.54129e-05 6.35505e-06 3.2081e-06 3.61214e-05
117 1 3.76387 2.78864 3.34661 2.32646e-05 -1.98619e-05 4.0823e-05 5.10123e-05
118 1 4.83069 4.48583 1.72789 5.187e-06 -1.48108e-05 3.79954e-05 4.11086e-05
119 1 4.52618 1.66912 9.75047 2.74315e-05 4.95509e-06 1.11834e-05 3.00352e-05
120 1 3.53265 1.47621 7.41374 -4.45039e-05 1.45527e-05 2.14852e-05 5.15169e-05
121 1 4.68031 3.0585 5.72582 -6.27372e-05 5.38086e-05 5.26156e-05 9.79782e-05
122 1 0.877029 0.00107293 2.38245 -3.10966e-05 -2.00721e-05 -4.49187e-05 5.82029e-05
123 1 1.90507 1.87476 0.861043 -2.94251e-05 -2.68503e-05 2.81022e-05 4.87495e-05
124 1 4.10988 7.05009 7.27634 2.754e-05 8.14178e-06 -1.22909e-06 2.87446e-05
125 1 10.0315 0.605742 7.08206 1.90897e-05 -3.32157e-05 -4.67128e-05 6.04135e-05
