ITEM: TIMESTEP
0
ITEM: NUMBER OF ATOMS
132
ITEM: BOX BOUNDS pp pp pp
0.0000000000000000e+00 1.1400361000000000e+01
0.0000000000000000e+00 1.2098903999999999e+01
0.0000000000000000e+00 1.2816801000000000e+01
ITEM: ATOMS id type x y z fx fy fz v_fmag
1 1 0.932854 8.16041 0.761837 -6.72278e-06 7.63418e-05 -4.16902e-05 8.7243e-05
2 1 7.28765 11.5436 10.0794 5.61581e-05 6.11303e-05 6.43976e-05 0.00010506
3 1 10.5333 0.159289 6.77809 7.06779e-06 -5.2601e-06 -2.71738e-05 2.85664e-05
4 1 9.36981 10.9674 3.79359 -1.90274e-05 -4.31028e-05 2.70026e-05 5.4305e-05
5 1 8.83137 12.0137 1.37924 9.02644e-06 1.01811e-05 -6.6707e-06 1.51535e-05
6 1 5.41486 9.74061 12.4032 -6.49687e-05 -0.000148138 -4.36731e-06 0.000161817
7 1 8.71116 10.4294 8.31915 1.91594e-05 -1.29351e-05 4.64537e-06 2.35791e-05
8 1 7.71583 8.99622 6.37164 1.84221e-05 -1.79988e-05 1.50974e-05 2.9854e-05
9 1 11.0047 9.49654 2.52687 -4.63819e-06 1.75566e-05 1.27663e-05 2.21975e-05
10 1 5.02131 7.37168 12.3795 5.85224e-06 0.000135305 4.89607e-06 0.00013552
11 1 6.8325 9.11982 10.2878 -1.17387e-05 1.14013e-05 9.96725e-06 1.91608e-05
12 1 5.88205 7.67481 8.25359 -3.71296e-05 -4.11667e-05 3.77508e-05 6.70703e-05
13 1 9.18226 8.43314 4.13115 -1.88744e-05 4.52286e-06 -4.00864e-05 4.45378e-05
14 1 7.98607 6.93702 2.19719 4.61176e-06 -4.13323e-06 -2.0807e-05 2.1709e-05
15 1 6.89339 4.11622 10.7567 2.67272e-06 -7.74987e-06 5.67524e-06 9.97057e-06
16 1 6.61201 6.61581 10.4976 8.93584e-06 -2.14448e-06 -1.11498e-05 1.44487e-05
17 1 5.90518 5.09497 8.50808 2.98114e-05 2.39573e-06 2.58939e-06 3.00194e-05
18 1 7.55935 6.40533 6.66031 -5.26683e-06 -2.82034e-05 3.31934e-05 4.38745e-05
19 1 6.17304 5.17924 4.26704 -3.04569e-05 -2.08156e-06 2.59622e-06 3.06382e-05
20 1 5.56768 2.59477 12.2628 -2.13258e-05 -1.49465e-05 1.13493e-05 2.84077e-05
21 1 7.48587 2.79696 8.69699 -2.93251e-05 -3.17744e-05 2.52338e-05 5.00631e-05
22 1 5.06018 2.60974 7.77425 2.43635e-05 8.66644e-06 7.62968e-07 2.58703e-05
23 1 6.90622 4.01759 6.50296 2.43526e-06 -2.04627e-05 -4.51417e-06 2.10957e-05
24 1 7.21634 4.24418 2.25229 3.15975e-05 1.98056e-05 -2.15675e-05 4.30792e-05
25 1 5.39144 0.0776635 12.2356 -8.50754e-06 4.60104e-05 2.08888e-05 5.12413e-05
26 1 6.66981 0.502396 7.88635 -1.18846e-05 -1.37105e-05 4.71185e-06 1.87463e-05
27 1 6.3988 1.66026 5.72849 7.33787e-06 -2.70685e-05 2.24164e-05 3.59032e-05
28 1 8.06764 3.23067 4.4541 -1.04814e-05 1.6232e-05 3.95341e-05 4.40032e-05
29 1 6.59866 1.55528 1.50573 -4.07494e-05 -2.94488e-05 3.21314e-05 5.96672e-05
30 1 4.98823 0.260446 3.32206 -1.91733e-05 -2.56393e-06 -1.96943e-05 2.76054e-05
31 1 7.48844 0.609056 3.67024 -7.29895e-06 -1.98439e-05 -1.60421e-05 2.65406e-05
32 1 4.7112 11.2937 9.86389 4.8846e-06 -7.42534e-06 -1.79749e-05 2.00523e-05
33 1 9.03561 2.31753 2.31006 1.65732e-05 -6.20231e-06 -3.92839e-06 1.81266e-05
34 1 11.2721 2.6031 6.22583 8.55241e-06 -4.54511e-06 2.65029e-05 2.82171e-05
35 1 10.7708 8.80852 8.48863 -1.84288e-05 3.19049e-06 1.07087e-05 2.15517e-05
36 1 9.84851 4.64834 12.4343 -8.20274e-05 -9.6862e-06 6.71627e-05 0.000106457
37 1 10.5904 6.30334 8.48966 3.56604e-05 -4.64349e-05 3.05663e-05 6.60467e-05
38 1 0.11342 5.91071 5.07169 -3.05078e-05 -2.3663e-05 1.80573e-05 4.26231e-05
39 1 10.0904 1.69778 12.7473 4.69394e-05 -3.09392e-05 1.83768e-05 5.9146e-05
40 1 10.4924 3.17811 8.52423 2.10923e-05 1.00115e-05 3.57773e-05 4.27216e-05
41 1 11.2659 3.24842 1.54744 3.60821e-06 -4.15964e-05 -8.33254e-06 4.2576e-05
42 1 9.82223 1.22844 4.55546 1.73525e-05 -2.57974e-05 1.10241e-05 3.2987e-05
43 1 9.741 11.6817 11.2019 -4.55806e-05 -1.16727e-05 5.41586e-06 4.73622e-05
44 1 7.78146 10.5939 12.3646 3.22237e-05 1.86386e-05 -3.96727e-05 5.4403e-05
45 1 11.0529 11.1929 9.08623 2.36798e-05 -3.83143e-05 -3.99666e-05 6.02167e-05
46 1 10.0975 9.89288 6.14799 -2.70665e-06 -1.57468e-05 4.42474e-06 1.65791e-05
47 1 7.57154 8.11904 12.5659 6.65595e-06 -2.03262e-05 1.65313e-05 2.70322e-05
48 1 9.39407 9.14858 10.6619 -3.74935e-06 1.0678e-06 1.0905e-05 1.15809e-05
49 1 8.40189 7.78215 8.65946 -3.16105e-05 -2.76002e-06 5.00743e-05 5.92813e-05
50 1 0.316251 8.49437 4.77671 -4.03117e-05 -1.73104e-05 1.4457e-05 4.61919e-05
51 1 10.8516 6.97292 2.77558 2.8926e-06 8.99689e-06 9.97377e-06 1.374e-05
52 1 7.96791 3.21257 0.15779 6.37561e-05 9.81393e-05 5.46311e-05 0.000129154
53 1 9.07812 6.52587 10.8662 3.99234e-05 2.36619e-05 1.28625e-05 4.81581e-05
54 1 8.45468 5.08632 8.84995 4.52019e-05 -2.59822e-05 5.11752e-05 7.30561e-05
55 1 9.84983 7.37528 6.35463 -2.97587e-05 2.34846e-05 -2.36824e-06 3.79831e-05
56 1 8.81375 5.81687 4.38491 -7.88406e-06 -2.43162e-05 2.27568e-05 3.42243e-05
57 1 0.579782 5.64633 0.434314 -2.61613e-06 3.09031e-05 -2.40801e-05 3.92645e-05
58 1 7.73264 1.04845 11.9033 -1.01974e-05 -0.000119687 -3.65185e-05 0.000125549
59 1 9.18136 2.92302 10.6641 2.53944e-05 -2.97624e-05 1.09139e-05 4.06176e-05
60 1 8.77127 2.09268 6.68992 3.89706e-05 7.34167e-06 -1.33222e-07 3.96564e-05
61 1 9.61612 4.64493 6.52756 2.91061e-06 -7.19909e-06 -8.36182e-06 1.14113e-05
62 1 9.57635 4.98118 2.03368 -2.23282e-06 3.06915e-05 2.2361e-05 3.80391e-05
63 1 9.1754 0.86833 8.95642 4.48875e-05 -6.07483e-06 -8.7118e-06 4.61268e-05
64 1 10.5084 3.78796 4.10091 -2.8884e-06 -9.99913e-06 2.98413e-05 3.16042e-05
65 1 8.13383 11.6438 5.99637 2.30321e-05 -5.19091e-06 2.98416e-05 3.80519e-05
66 1 7.03013 10.0926 4.02782 -1.53491e-05 1.32086e-05 -1.82876e-05 2.72855e-05
67 1 6.43351 11.1053 1.66837 7.71787e-06 2.31628e-05 -6.92916e-07 2.44246e-05
68 1 0.054488 7.39343 11.0213 -9.50401e-07 6.9537e-06 2.4618e-05 2.55989e-05
69 1 1.79604 8.72415 9.2895 -5.34162e-06 3.76835e-07 2.28801e-05 2.34984e-05
70 1 0.98873 7.4789 7.05106 5.36645e-06 -2.2141e-05 -3.94364e-05 4.5544e-05
71 1 4.38534 7.36387 3.86012 -2.46475e-05 -1.36274e-06 -4.57349e-05 5.19716e-05
72 1 3.06993 6.11821 0.99582 8.28336e-06 1.79158e-05 -2.33098e-05 3.0544e-05
73 1 11.1405 4.85312 10.3698 -3.10063e-05 4.89974e-05 -4.22599e-06 5.81377e-05
74 1 1.66544 6.19035 9.30416 -2.45541e-05 -7.41015e-06 2.75983e-06 2.5796e-05
75 1 0.886267 4.75087 7.27568 -4.00429e-06 2.23398e-06 -8.97761e-06 1.00808e-05
76 1 2.62854 6.00992 5.57627 -5.51305e-05 1.25114e-05 -3.74169e-05 6.77933e-05
77 1 1.1064 4.89539 2.89288 5.14612e-06 1.31056e-05 -1.19026e-05 1.84367e-05
78 1 4.84534 4.96807 12.1715 3.61898e-06 -0.000107299 -1.39255e-05 0.000108259
79 1 11.3027 1.45884 10.3846 2.10767e-05 -9.60915e-06 3.44142e-05 4.14838e-05
80 1 1.66375 3.44478 9.47162 7.94947e-06 7.71744e-06 -3.73089e-06 1.16907e-05
81 1 0.982555 1.09776 8.20003 2.70067e-05 -2.34371e-05 -9.40035e-06 3.69733e-05
82 1 1.79066 3.67352 5.00963 3.43894e-06 -7.11937e-06 -2.98825e-05 3.09107e-05
83 1 2.36594 3.72792 1.00004 -6.1404e-06 1.17537e-06 -3.92696e-05 3.97642e-05
84 1 3.26116 1.45534 9.49197 -8.06333e-06 1.99356e-05 2.19911e-06 2.16167e-05
85 1 1.5265 0.812531 5.74843 2.14691e-05 4.51562e-05 -1.06261e-05 5.11167e-05
86 1 3.0447 2.5647 3.13778 1.74135e-05 5.81439e-06 -2.73778e-05 3.29634e-05
87 1 1.45529 1.31586 1.02872 -1.24203e-05 1.88383e-05 -3.13765e-05 3.86475e-05
88 1 3.06601 11.0036 5.34794 1.66088e-05 1.08122e-05 -7.92345e-06 2.13433e-05
89 1 2.07929 9.68573 3.17851 -2.16614e-05 -2.00708e-05 1.46794e-06 2.9567e-05
90 1 1.33638 10.6821 0.922194 -6.12381e-06 5.96292e-05 -2.39419e-06 5.99906e-05
91 1 1.12209 10.3396 7.02049 1.55426e-05 -5.09822e-05 -3.72613e-05 6.5032e-05
92 1 3.45517 8.55862 1.29703 3.94479e-06 1.5132e-05 -4.82097e-05 5.06824e-05
93 1 1.9709 7.19668 3.17595 9.04352e-06 -4.54352e-06 -4.25242e-05 4.3712e-05
94 1 0.634043 3.2111 11.9966 -2.38076e-05 -1.70671e-05 -3.48152e-06 2.94993e-05
95 1 0.639417 1.83054 3.53977 -1.37388e-05 -1.7053e-05 -2.05088e-05 3.00029e-05
96 1 0.384401 11.102 4.53273 1.28446e-06 -2.99809e-05 7.5294e-06 3.09385e-05
97 1 5.98704 8.6105 1.91013 4.88864e-06 1.124e-05 -1.74268e-05 2.13056e-05
98 1 2.72879 8.55057 5.48374 1.33632e-05 7.01045e-06 -4.8817e-06 1.58604e-05
99 1 3.58787 9.87402 7.71039 3.07347e-05 5.06924e-06 1.17355e-05 3.32873e-05
100 1 0.542021 9.90234 11.1594 -2.03034e-05 2.6049e-05 -3.22258e-05 4.61441e-05
101 1 3.01545 10.1756 11.783 -1.2747e-05 1.48646e-05 -8.67763e-06 2.14183e-05
102 1 6.10888 10.1799 8.02255 2.18752e-05 -1.60918e-05 9.49431e-06 2.87682e-05
103 1 5.18568 8.82342 5.96418 -1.49838e-05 1.2221e-05 -1.71679e-06 1.94117e-05
104 1 8.43117 9.43071 1.87334 9.59607e-06 -2.86535e-05 -9.45264e-06 3.16616e-05
105 1 2.53993 7.63161 11.6229 -1.1223e-05 -3.71568e-05 -1.32022e-06 3.88372e-05
106 1 4.3065 8.79213 10.0276 -4.62692e-06 1.50887e-05 1.91148e-05 2.47882e-05
107 1 3.41763 7.40008 7.76795 -2.79663e-06 1.16356e-05 -1.79442e-05 2.15686e-05
108 1 6.81544 7.58407 4.38931 -2.28184e-05 -6.86078e-06 2.80755e-06 2.39924e-05
109 1 5.5136 6.15809 1.84485 1.19874e-05 -3.62247e-06 -1.51722e-05 1.96728e-05
110 1 2.37094 5.00711 11.4681 5.11954e-06 -7.31903e-06 2.19689e-05 2.37152e-05
111 1 4.13936 6.28616 10.0167 2.54271e-05 3.03545e-07 -3.12089e-05 4.0257e-05
112 1 3.4287 4.87362 7.87423 2.95081e-05 2.18023e-05 -2.67821e-05 4.54241e-05
113 1 5.07837 6.25674 6.23589 -4.3339e-05 3.92029e-05 -1.22118e-06 5.84519e-05
114 1 3.63375 5.01468 3.38347 -1.82455e-05 1.24399e-05 1.36239e-06 2.21247e-05
115 1 9.87611 7.23912 0.408752 -2.81589e-05 3.80025e-05 1.13108e-05 4.86317e-05
116 1 7.37875 5.6481 0.0201696 3.55688e-05 -4.5201e-05 1.52678e-05 5.95095e-05
117 1 4.32658 3.71905 10.0184 2.27031e-05 2.31496e-05 6.7255e-06 3.31144e-05
118 1 2.60365 2.6356 7.17004 4.93998e-06 2.87497e-05 2.1388e-05 3.61718e-05
119 1 4.36264 3.88193 5.61706 -3.05462e-05 7.47022e-07 -9.70099e-06 3.20583e-05
120 1 4.8281 3.74774 1.52923 3.87482e-05 1.34739e-05 -3.08045e-05 5.13019e-05
121 1 5.78579 1.53855 10.0535 1.52072e-05 1.03772e-05 -4.87827e-06 1.90458e-05
122 1 3.89382 1.42463 5.23675 2.20771e-05 4.55904e-05 -2.04615e-05 5.46311e-05
123 1 5.61365 2.7212 3.63731 -1.75446e-05 1.48206e-05 6.01246e-05 6.43617e-05
124 1 4.01058 1.37786 1.16862 -6.8401e-06 1.04792e-05 -2.5837e-05 2.87081e-05
125 1 3.93243 0.240453 7.46851 -3.72781e-05 1.24781e-05 -3.2872e-05 5.12438e-05
126 1 2.44307 0.0837962 3.14514 -2.12223e-05 -7.64664e-06 -6.18506e-06 2.33905e-05
127 1 2.18439 11.2136 9.39386 2.98076e-05 6.50559e-07 2.31977e-05 3.77763e-05
128 1 5.56773 11.3538 5.70735 -2.39709e-05 -1.86862e-05 1.61622e-05 3.44238e-05
129 1 4.54635 9.87267 3.61042 -1.07331e-05 1.71709e-05 -1.10046e-06 2.02793e-05
130 1 3.87942 10.9867 1.3484 1.31811e-05 1.43403e-05 -2.92502e-05 3.5142e-05
131 1 3.06423 2.41727 11.8058 -2.82785e-05 1.39617e-05 1.01583e-05 3.3133e-05
132 1 10.2229 9.80979 0.15657 2.53778e-05 8.3408e-05 -1.78254e-05 8.89869e-05
