ITEM: TIMESTEP
0
ITEM: NUMBER OF ATOMS
143
ITEM: BOX BOUNDS pp pp pp
0.0000000000000000e+00 1.1464695000000001e+01
0.0000000000000000e+00 1.1317634999999999e+01
0.0000000000000000e+00 1.1648808000000001e+01
ITEM: ATOMS id type x y z fx fy fz v_fmag
1 1 1.88308 1.01389 3.34055 1.59288e-05 -1.42428e-06 -1.72863e-05 2.35493e-05
2 1 7.64892 10.8472 6.35929 4.43215e-05 -2.38294e-05 1.04234e-05 5.13895e-05
3 1 5.67151 10.9397 10.2381 1.80397e-05 -2.43558e-05 -3.9215e-05 4.95626e-05
4 1 9.20559 1.81318 2.31386 -5.81632e-06 -3.35501e-05 9.70012e-06 3.54052e-05
5 1 8.44184 0.664852 4.34668 3.1538e-05 -1.32494e-05 9.08155e-06 3.5393e-05
6 1 9.73984 2.10224 5.78391 -9.86068e-06 -8.25557e-06 2.03417e-05 2.4066e-05
7 1 8.87654 0.964706 7.82514 3.33563e-05 -1.94204e-05 6.66816e-05 7.70469e-05
8 1 7.23016 10.7262 2.66915 -1.44014e-05 -7.11267e-05 2.97517e-05 7.84319e-05
9 1 10.0939 2.37523 9.29795 -5.8347e-07 -7.2341e-06 -1.55464e-05 1.7157e-05
10 1 7.81128 2.84114 0.714599 2.12725e-05 -2.04653e-05 -5.53029e-05 6.26878e-05
11 1 9.10319 4.20656 2.17908 -1.25982e-05 1.491e-05 -1.13153e-05 2.25624e-05
12 1 8.14935 3.02959 4.18659 -1.4761e-05 -2.28706e-05 -1.88706e-06 2.72857e-05
13 1 9.49661 4.48309 5.54904 -1.38647e-05 -2.99851e-07 -3.03967e-05 3.34108e-05
14 1 8.56496 3.33532 7.64406 -7.90014e-06 -6.77288e-06 -2.1282e-06 1.06214e-05
15 1 9.82174 5.10037 8.59912 2.64657e-05 2.29107e-06 -1.43464e-05 3.01911e-05
16 1 9.19304 0.99821 11.6176 1.51095e-05 -5.17389e-06 2.04933e-06 1.61018e-05
17 1 8.79191 4.00072 10.458 1.24098e-05 1.05884e-06 2.86023e-06 1.27791e-05
18 1 7.35144 10.0059 0.205314 0.00011203 -0.000108558 5.41126e-05 0.000165117
19 1 9.26887 9.91897 7.99477 -1.5646e-05 -2.76466e-05 2.07817e-05 3.79606e-05
20 1 7.30215 4.90745 8.92933 -5.98112e-05 8.36038e-06 1.44758e-05 6.21033e-05
21 1 6.3211 3.78931 10.8373 -5.98475e-06 1.46561e-05 -3.30994e-05 3.66904e-05
22 1 5.13559 5.00959 0.962015 -4.74305e-08 2.13154e-05 -1.04423e-06 2.1341e-05
23 1 6.4244 6.37528 2.36963 -6.99376e-07 -1.10419e-06 3.1063e-05 3.10905e-05
24 1 5.47049 5.21295 4.38943 1.28409e-05 1.85254e-05 1.99833e-05 3.01233e-05
25 1 9.28568 7.03356 5.09038 2.7001e-05 1.55239e-05 5.10757e-05 5.98228e-05
26 1 5.9415 8.5872 10.4059 -2.98886e-06 -1.52468e-05 -1.87692e-05 2.43656e-05
27 1 5.73147 5.76686 7.44604 -5.93349e-05 -1.17004e-05 2.44705e-05 6.52406e-05
28 1 6.10965 6.18586 10.5967 -6.32613e-05 -1.85157e-05 -3.4593e-05 7.44412e-05
29 1 4.94948 7.37343 0.721668 2.36584e-05 2.96359e-06 -1.61735e-05 2.88112e-05
30 1 8.62341 8.96075 1.76796 -7.94664e-05 2.51583e-05 -5.8217e-05 0.000101671
31 1 7.70355 7.85594 3.66998 -9.26191e-05 1.63007e-06 -3.70413e-05 9.97648e-05
32 1 8.89637 9.65633 4.47466 4.79231e-05 -6.39149e-07 3.52048e-05 5.94677e-05
33 1 7.99756 8.49108 6.54553 5.20864e-05 2.66177e-05 7.02568e-06 5.8914e-05
34 1 7.08483 7.36069 8.60847 2.42209e-05 -2.84326e-05 -4.95083e-05 6.20173e-05
35 1 6.07871 3.10083 8.07565 -3.55563e-05 -1.37826e-05 1.06222e-05 3.95859e-05
36 1 7.60014 5.21177 0.569153 -1.67352e-05 -3.14311e-05 5.66177e-05 6.68846e-05
37 1 7.94756 5.4197 3.99032 -2.15556e-05 -3.07239e-05 1.22257e-05 3.94724e-05
38 1 10.0656 5.41954 0.197737 -2.65251e-05 -1.42614e-05 2.95556e-05 4.2196e-05
39 1 10.4392 5.63681 3.52987 3.3187e-05 -4.30554e-05 1.03383e-07 5.43614e-05
40 1 10.7795 6.15835 6.6414 1.2403e-06 -3.57671e-05 3.92271e-05 5.30998e-05
41 1 11.0749 6.66114 9.92377 8.15228e-06 2.47542e-05 -1.93392e-06 2.61337e-05
42 1 9.91645 7.84171 0.0841332 -7.33248e-06 -4.64664e-05 3.35762e-05 5.7795e-05
43 1 10.8774 9.01207 9.66093 1.79841e-05 -1.97718e-05 -2.97827e-06 2.68928e-05
44 1 11.3045 4.18393 10.1629 -1.54908e-05 5.23001e-05 2.46924e-05 5.98747e-05
45 1 10.4848 0.0180473 9.46997 -1.7704e-05 2.38232e-05 1.71021e-06 2.97305e-05
46 1 1.14814 8.39884 2.61601 1.65769e-05 6.15771e-06 2.63817e-05 3.17602e-05
47 1 0.251844 7.28179 4.66886 -2.1463e-05 -1.00652e-05 -5.87729e-05 6.33737e-05
48 1 1.48008 8.937 5.82006 4.055e-05 -2.80586e-05 -1.04611e-05 5.04085e-05
49 1 0.553234 7.77996 7.85893 -8.2543e-06 2.33714e-05 -3.85447e-06 2.50841e-05
50 1 1.87282 9.27154 9.22875 -4.24384e-06 1.0178e-05 -3.04635e-05 3.23979e-05
51 1 0.35595 10.544 1.86409 -1.25697e-05 -7.07455e-06 1.14123e-05 1.83926e-05
52 1 1.73847 6.38808 6.25782 3.17132e-05 -3.86845e-06 4.80706e-05 5.7719e-05
53 1 8.88532 6.58042 1.99086 -7.77611e-05 -9.36376e-05 -1.46983e-05 0.0001226
54 1 11.0343 3.58546 7.17881 -1.61991e-05 1.38071e-05 -3.92839e-06 2.16444e-05
55 1 10.2499 3.0311 0.356598 -3.22474e-05 -1.57032e-06 -1.20767e-05 3.44703e-05
56 1 8.31061 5.95593 7.03405 7.85739e-06 -4.12539e-06 -7.58274e-06 1.16728e-05
57 1 9.5609 7.55815 8.23875 2.22976e-06 2.54295e-05 -4.17109e-06 2.58656e-05
58 1 8.60114 6.42619 10.2447 2.33505e-05 -1.10985e-05 -5.64212e-06 2.64624e-05
59 1 7.39824 7.57933 0.354623 3.79939e-05 1.62829e-05 4.47224e-05 6.08996e-05
60 1 10.25 8.17502 3.09441 0.00010001 2.51073e-05 0.000119011 0.000157467
61 1 10.4713 8.69661 6.20502 -3.33629e-05 1.85758e-05 -1.91818e-05 4.27327e-05
62 1 10.6276 3.20058 3.72914 2.07298e-05 -6.03221e-05 -2.83016e-05 6.97815e-05
63 1 8.45668 8.80801 10.0691 -1.81536e-05 3.36864e-05 -1.04641e-05 3.96714e-05
64 1 9.62466 10.8839 2.40638 1.30369e-05 -6.29343e-05 2.76029e-05 6.99472e-05
65 1 10.1079 11.0624 5.97666 8.19349e-06 1.3603e-05 1.19205e-05 1.98563e-05
66 1 8.11329 11.1252 9.87376 2.199e-05 -3.80882e-06 -3.85449e-05 4.45396e-05
67 1 10.9252 0.838378 3.93609 -4.8346e-05 1.56292e-05 -5.2925e-05 7.33666e-05
68 1 11.3313 1.20367 7.4129 -3.37511e-05 -5.06628e-05 7.55311e-06 6.13426e-05
69 1 0.166843 1.42887 10.9148 6.05141e-05 8.32958e-06 1.77852e-05 6.36212e-05
70 1 9.97983 10.1626 0.0615436 3.56249e-05 -2.10107e-05 1.55587e-05 4.41889e-05
71 1 11.3772 9.84562 4.18933 -4.48069e-05 -5.20353e-05 -4.55326e-05 8.23926e-05
72 1 6.99469 4.27128 6.02196 9.42688e-06 -2.53601e-05 -4.67321e-06 2.74562e-05
73 1 6.65604 4.01821 2.57627 -5.26174e-05 -3.68936e-05 2.22689e-05 6.8012e-05
74 1 1.11842 5.69246 11.4685 1.65534e-05 1.34059e-05 2.95117e-05 3.63961e-05
75 1 11.3839 6.77815 1.55866 -2.53049e-06 1.42949e-05 -2.67166e-05 3.0406e-05
76 1 3.77131 8.52298 2.47999 -4.55921e-05 1.49428e-05 -5.50323e-05 7.30101e-05
77 1 2.65723 7.50799 4.30217 -1.55596e-05 2.70449e-05 2.9493e-05 4.29344e-05
78 1 3.93817 9.19943 5.33055 -2.818e-05 1.50508e-05 -2.6431e-05 4.14637e-05
79 1 3.01712 8.02892 7.44756 -3.855e-05 1.75292e-05 -2.3026e-06 4.24108e-05
80 1 2.04449 6.91792 9.53849 3.20906e-05 2.12425e-05 -6.82165e-06 3.90843e-05
81 1 4.35925 9.51461 8.79649 -1.08519e-06 -8.56023e-06 -2.83954e-05 2.96775e-05
82 1 2.48001 9.72441 1.03117 6.8829e-05 -3.48757e-05 2.27789e-05 8.04526e-05
83 1 2.35407 10.0801 3.65259 -1.4338e-05 3.94424e-05 -4.92962e-05 6.4741e-05
84 1 2.75042 10.416 7.18758 -9.87968e-07 2.7168e-05 -3.47889e-05 4.41514e-05
85 1 0.780714 10.4753 11.0173 -8.19638e-06 -1.4296e-06 -2.32269e-05 2.46721e-05
86 1 4.35894 1.40194 3.09813 6.78179e-06 -3.97459e-05 -4.56125e-05 6.08788e-05
87 1 3.55984 0.225324 5.11233 -1.23444e-05 -4.40611e-05 -3.65053e-05 5.85355e-05
88 1 0.875435 8.20137 11.4507 -3.33187e-05 4.40837e-06 4.54843e-06 3.39154e-05
89 1 4.8088 1.6901 6.57493 5.71896e-06 3.86286e-05 -5.69174e-06 3.94623e-05
90 1 0.80163 5.31639 8.24464 -3.20017e-06 8.71806e-06 1.55125e-05 1.80799e-05
91 1 0.49596 4.71409 5.1013 -1.40354e-05 1.8071e-05 -6.52934e-05 6.91866e-05
92 1 1.14156 11.3112 5.55688 3.08878e-05 -2.99863e-05 1.26158e-05 4.48597e-05
93 1 2.34985 1.4631 6.99183 -3.40342e-05 -1.57519e-05 -1.85542e-05 4.18415e-05
94 1 1.50637 0.314579 9.00693 -2.55062e-05 4.93725e-05 2.40159e-05 6.0539e-05
95 1 2.71359 1.7464 10.4364 -3.69284e-05 2.73068e-05 1.12806e-05 4.72929e-05
96 1 1.90171 0.637402 0.775206 5.48874e-05 6.21808e-05 0.000106643 0.000135099
97 1 0.151142 1.81455 1.83631 9.42572e-06 2.32729e-05 -3.02257e-05 3.92946e-05
98 1 4.17652 6.60699 5.89987 -5.7375e-06 1.41198e-05 -8.14085e-06 1.72789e-05
99 1 1.61385 3.42463 3.31607 1.20356e-06 3.33023e-05 -1.52596e-05 3.66517e-05
100 1 2.02819 3.83784 6.75582 1.35115e-06 1.29699e-06 2.21913e-05 2.22702e-05
101 1 1.1056 2.66571 8.82118 5.61084e-05 1.90261e-06 4.28676e-05 7.06357e-05
102 1 2.30137 4.41907 9.78585 3.73157e-05 2.09267e-05 2.17311e-05 4.79857e-05
103 1 1.33807 3.24316 0.0686289 -6.55765e-06 3.70144e-05 -1.21664e-05 3.95106e-05
104 1 0.121728 4.37492 1.76996 -1.96893e-05 -3.48155e-06 -2.57591e-05 3.26086e-05
105 1 1.45278 5.884 3.10419 1.85236e-05 -2.07203e-05 1.11551e-05 2.99482e-05
106 1 0.745556 2.32179 5.34925 -2.29483e-05 4.32158e-05 -1.93898e-05 5.26326e-05
107 1 5.68575 2.82815 4.58285 -3.08883e-05 -2.55523e-05 2.15025e-06 4.01452e-05
108 1 4.00363 0.563479 8.59126 -2.71891e-05 -1.60246e-05 -3.33013e-05 4.58804e-05
109 1 4.28155 0.670565 0.720709 -7.25466e-06 5.31634e-05 -8.38127e-05 9.95166e-05
110 1 5.50171 8.27414 6.97736 9.51574e-07 -2.07133e-05 1.66174e-05 2.65723e-05
111 1 6.831 9.71932 8.39426 1.31897e-05 2.49899e-05 3.15749e-06 2.84329e-05
112 1 3.42009 8.39575 10.8532 5.75205e-05 1.01604e-05 -3.46136e-05 6.78966e-05
113 1 4.8969 9.8042 0.593505 1.83397e-05 5.34914e-05 1.7736e-05 5.92642e-05
114 1 4.7909 10.4754 3.08457 3.20782e-05 7.47934e-05 9.90743e-06 8.1983e-05
115 1 5.20765 10.6449 6.75587 -3.26049e-05 -9.09112e-07 3.7686e-05 4.98412e-05
116 1 6.40627 9.4775 4.8448 -7.00783e-06 -3.27376e-05 1.60835e-05 3.71422e-05
117 1 3.23124 10.7589 10.5959 4.67959e-05 1.4968e-05 -1.27432e-06 4.91479e-05
118 1 6.00056 0.469566 4.71931 -1.17015e-05 3.02626e-05 -6.42536e-06 3.30762e-05
119 1 7.27083 1.89359 6.20391 -2.62174e-05 -3.40603e-05 -1.00946e-06 4.29939e-05
120 1 6.44578 0.759802 8.22769 -5.33096e-06 -1.3576e-05 3.82115e-06 1.50774e-05
121 1 7.64925 2.08955 9.81208 2.81477e-05 -5.46189e-05 -1.37621e-05 6.29676e-05
122 1 6.70281 0.84951 0.364362 -8.60089e-06 1.77642e-05 4.04021e-05 4.49652e-05
123 1 5.36407 2.66172 1.13739 2.93392e-05 -1.13645e-05 7.26601e-06 3.22914e-05
124 1 6.78684 1.64439 2.71357 -3.11617e-05 2.08477e-05 -1.03234e-05 3.88877e-05
125 1 5.1693 1.89661 10.1911 3.71384e-06 5.39747e-05 -4.97925e-07 5.41046e-05
126 1 5.21719 7.65448 4.05237 6.54631e-05 1.37766e-05 5.67887e-05 8.77506e-05
127 1 2.48464 7.13396 1.12598 2.04385e-05 1.63556e-05 -7.06485e-06 2.71136e-05
128 1 2.91517 2.45375 1.58905 1.73244e-06 -2.62691e-05 -3.41391e-05 4.31109e-05
129 1 4.19301 3.80109 2.98423 -1.29598e-05 5.4588e-05 -1.70785e-06 5.61313e-05
130 1 3.18227 2.56258 4.92244 -5.70047e-06 1.7464e-05 -4.91684e-05 5.24883e-05
131 1 4.48916 4.06279 6.37894 -2.94469e-05 -1.0976e-05 -1.08205e-06 3.14446e-05
132 1 3.60045 2.9111 8.41902 -5.20522e-05 4.96925e-05 2.01869e-05 7.47415e-05
133 1 4.78892 4.67046 9.34838 1.37595e-05 4.41078e-06 -2.86222e-05 3.20626e-05
134 1 6.21407 8.74577 2.1556 6.37394e-05 1.90316e-05 6.67479e-05 9.42348e-05
135 1 3.84203 3.55833 11.2813 -2.07912e-05 2.39722e-05 -2.1309e-06 3.18038e-05
136 1 3.95846 6.15323 2.7562 1.37403e-05 -5.50887e-05 2.43092e-05 6.17617e-05
137 1 2.95183 4.96129 4.71132 -2.15228e-05 1.49121e-05 -2.96868e-05 3.95842e-05
138 1 6.74029 6.79446 5.56383 -6.18345e-05 -5.45426e-05 1.19888e-05 8.33195e-05
139 1 3.23562 5.55292 7.86313 -4.17883e-05 -1.46535e-05 -1.50723e-06 4.43087e-05
140 1 4.56091 7.14449 9.05417 5.24504e-05 5.2136e-05 2.29363e-05 7.74292e-05
141 1 3.62179 5.95776 11.0179 -2.56597e-05 2.54365e-05 1.40251e-05 3.87574e-05
142 1 2.64644 4.76373 1.37086 2.15825e-05 3.85066e-05 -2.2772e-05 4.96702e-05
143 1 0.266581 10.1646 7.6058 2.13062e-06 2.4754e-05 -5.28663e-06 2.54017e-05
