ITEM: TIMESTEP
0
ITEM: NUMBER OF ATOMS
129
ITEM: BOX BOUNDS pp pp pp
0.0000000000000000e+00 1.1400361000000000e+01
0.0000000000000000e+00 1.2098903999999999e+01
0.0000000000000000e+00 1.2816801000000000e+01
ITEM: ATOMS id type x y z fx fy fz v_fmag
1 1 2.25105 7.56264 4.8544 1.46199e-05 1.13379e-05 -7.41809e-06 1.99328e-05
2 1 6.9656 11.0533 11.0612 3.08269e-06 -3.44072e-05 3.02491e-06 3.46772e-05
3 1 8.03031 11.2589 8.57373 -1.82818e-05 3.01993e-05 -2.34401e-05 4.23752e-05
4 1 8.63739 10.9477 3.24591 -5.30427e-06 -1.42674e-05 3.21008e-05 3.55268e-05
5 1 5.11005 9.16281 11.1133 0.000128454 -7.20163e-05 -4.25965e-06 0.000147325
6 1 9.01942 9.28674 9.96341 1.34779e-05 2.21149e-06 1.01348e-06 1.36957e-05
7 1 8.44852 8.97861 7.33711 -4.82188e-06 6.40799e-06 1.43278e-05 1.64194e-05
8 1 9.90627 10.105 5.40568 5.77815e-07 -1.53113e-06 2.01072e-05 2.01737e-05
9 1 8.85433 8.41377 3.64239 -1.06362e-05 -9.2159e-06 3.04309e-05 3.35276e-05
10 1 10.2674 9.5578 1.83336 -1.52749e-05 -1.70225e-05 -6.67099e-06 2.38241e-05
11 1 7.72843 5.88431 12.2248 1.07306e-05 1.03577e-05 -6.05455e-07 1.49263e-05
12 1 9.17613 6.72458 10.3165 -3.65061e-05 5.03348e-05 4.86516e-05 7.8951e-05
13 1 5.94321 6.31275 7.46867 -8.97746e-06 -2.97938e-05 1.48233e-05 3.44674e-05
14 1 10.016 7.46814 5.80678 6.68037e-07 -6.35322e-06 -1.16546e-05 1.32906e-05
15 1 1.61424 0.404143 1.84916 -3.74097e-05 5.46481e-06 3.9643e-05 5.47806e-05
16 1 6.54873 5.80396 3.7086 -3.30357e-05 -7.95677e-06 -9.61705e-06 3.53151e-05
17 1 5.59942 4.18747 11.4183 1.33961e-05 -1.6351e-05 3.34989e-05 3.96104e-05
18 1 7.12024 5.2841 9.63512 -1.33659e-05 5.92306e-07 1.11178e-05 1.73955e-05
19 1 5.96989 3.70912 7.77979 -1.12688e-06 -1.71582e-06 1.11653e-05 1.13524e-05
20 1 7.52011 4.79167 5.89331 1.94668e-05 -2.30168e-06 4.62547e-06 2.01407e-05
21 1 7.71128 3.46632 3.55731 3.38382e-05 -3.29601e-06 -1.35399e-06 3.40253e-05
22 1 9.01399 4.53721 1.64253 1.0034e-05 -1.57365e-05 1.23816e-05 2.2397e-05
23 1 5.93523 1.45281 11.7409 3.37346e-05 1.26244e-05 -2.13766e-07 3.60201e-05
24 1 7.12562 2.64961 9.87739 7.28998e-06 6.78693e-06 5.61559e-06 1.14342e-05
25 1 4.63846 1.53067 7.17294 1.50989e-05 1.92616e-05 1.19015e-05 2.72145e-05
26 1 6.14345 2.58125 5.32813 -1.1307e-06 1.17629e-05 7.31153e-07 1.18397e-05
27 1 4.75988 0.457205 4.69472 -1.8274e-05 -2.03064e-05 8.46234e-07 2.73313e-05
28 1 8.42161 2.00379 1.53314 -6.87445e-06 -5.5413e-05 -4.28955e-06 5.60024e-05
29 1 5.82794 0.439757 9.25907 2.27209e-05 2.20633e-05 -1.63092e-05 3.56233e-05
30 1 7.98762 6.87687 1.77766 -2.47023e-06 1.40872e-06 1.06288e-05 1.10026e-05
31 1 11.0926 2.00984 2.09503 -1.47189e-05 -1.83703e-05 -1.07607e-05 2.58826e-05
32 1 7.36364 0.372758 4.98728 -3.64186e-05 -1.40154e-05 -2.01659e-05 4.3925e-05
33 1 8.8667 2.60585 5.79305 1.52561e-05 -2.04378e-05 -3.44584e-06 2.57357e-05
34 1 10.7277 5.20023 8.74068 -2.23829e-05 3.46559e-05 7.27983e-06 4.1893e-05
35 1 0.279498 5.86433 4.25186 1.97775e-05 1.57452e-06 2.53381e-05 3.21815e-05
36 1 10.2986 2.95707 12.7361 6.9275e-06 8.60377e-06 -2.49896e-05 2.7322e-05
37 1 10.9724 2.78286 7.70106 2.64079e-05 1.72421e-05 2.25128e-05 3.87491e-05
38 1 1.42656 3.03928 3.61085 1.49252e-05 3.40956e-05 1.27379e-05 3.93386e-05
39 1 0.235357 0.679141 12.577 -2.55042e-06 -9.63103e-07 -5.46388e-06 6.10625e-06
40 1 9.56948 0.302271 6.66685 -4.02432e-06 -2.79887e-05 -6.09102e-05 6.71536e-05
41 1 9.36781 1.19738 3.7394 9.28382e-06 -8.05202e-06 -9.91648e-06 1.57912e-05
42 1 9.0879 10.455 12.3369 1.51578e-05 2.62576e-05 -1.02023e-05 3.19892e-05
43 1 10.2095 11.5672 10.3198 -1.22061e-05 -1.31253e-05 -1.54925e-05 2.36914e-05
44 1 10.5079 10.3663 8.01824 1.87417e-05 -1.19892e-05 -1.59535e-05 2.73771e-05
45 1 11.2946 11.4308 3.57998 1.17352e-06 2.96593e-06 1.27044e-05 1.30987e-05
46 1 7.37986 8.47745 11.8025 -0.000128469 3.70638e-05 -4.42183e-05 0.000140831
47 1 10.607 7.78587 8.37544 9.04416e-06 1.95889e-05 1.45342e-05 2.60147e-05
48 1 0.0639632 8.57489 3.92809 3.85686e-06 -1.43046e-05 1.35644e-05 2.00871e-05
49 1 10.3086 5.51492 12.4946 -2.99664e-05 2.13399e-05 9.87709e-06 3.80911e-05
50 1 0.343692 6.76696 10.6059 -2.88275e-05 -1.3085e-05 -2.46826e-05 4.01432e-05
51 1 8.53897 6.39567 7.73961 -1.75964e-05 -7.57594e-06 -1.27645e-05 2.30209e-05
52 1 9.05558 5.85036 3.98752 -2.86052e-06 -3.50171e-05 1.49621e-05 3.81869e-05
53 1 10.5336 6.90005 2.10424 2.39377e-05 1.85304e-06 1.35737e-05 2.75806e-05
54 1 7.72234 3.33878 12.3879 8.30565e-06 2.85434e-05 1.26035e-05 3.22887e-05
55 1 9.32594 3.97547 10.5233 -1.01549e-06 3.68265e-05 1.23641e-05 3.88599e-05
56 1 8.57494 3.78703 8.04912 1.66666e-05 2.07994e-05 1.05038e-05 2.86482e-05
57 1 10.1219 4.86943 6.20215 -8.38058e-06 -1.57868e-05 7.43349e-06 1.93575e-05
58 1 10.3049 3.65163 3.89908 6.86829e-06 2.10496e-05 3.7877e-05 4.3874e-05
59 1 0.191107 4.58346 1.85632 -1.618e-05 1.14307e-05 -1.18412e-05 2.30796e-05
60 1 8.72926 1.03434 11.7367 -1.19052e-05 -2.33216e-05 -1.74167e-05 3.1448e-05
61 1 9.19249 1.42373 9.02247 1.07273e-05 9.88832e-06 -6.3159e-05 6.48222e-05
62 1 7.25503 1.47478 7.40461 7.21752e-06 -2.58237e-06 -3.56837e-07 7.67388e-06
63 1 9.82684 12.0505 1.33526 1.08762e-06 1.11077e-05 1.53701e-06 1.12662e-05
64 1 1.54498 5.71071 12.8073 -1.20157e-05 7.23792e-06 8.44144e-06 1.63714e-05
65 1 4.33409 11.5577 11.1125 -5.31982e-06 5.53267e-05 1.30648e-05 5.70967e-05
66 1 6.12461 10.9783 2.9902 3.61262e-06 1.49443e-05 -4.5898e-06 1.60452e-05
67 1 3.72743 8.7293 2.83234 -1.04027e-05 1.3699e-07 -4.65632e-05 4.77113e-05
68 1 5.15399 10.0611 0.746898 9.06135e-06 2.51956e-06 -2.434e-06 9.71496e-06
69 1 2.95293 6.76109 10.8661 -4.31897e-05 -2.04229e-05 5.69273e-06 4.81129e-05
70 1 1.79239 7.82603 8.69089 -1.1321e-06 -5.37267e-06 -1.02413e-05 1.16203e-05
71 1 0.784062 6.35222 6.79994 -1.03516e-05 -1.57623e-05 7.14204e-06 2.01647e-05
72 1 4.79549 7.33388 5.13092 1.11571e-05 -2.90745e-05 -2.30041e-05 3.87168e-05
73 1 1.80518 6.91946 2.3592 4.19416e-06 -2.20824e-05 -3.5044e-06 2.27487e-05
74 1 3.33671 8.2253 0.235714 2.16823e-05 3.00587e-05 -8.12021e-05 8.92605e-05
75 1 0.499129 4.22431 10.9834 -2.34681e-06 -1.16877e-05 1.80474e-06 1.20568e-05
76 1 1.87661 5.2476 9.00571 -2.94125e-05 1.36639e-05 -2.14677e-05 3.88929e-05
77 1 1.17341 3.94341 6.01842 1.98644e-05 -5.14918e-06 -5.20788e-06 2.11715e-05
78 1 2.79676 5.15944 4.41164 -9.93225e-06 1.27963e-05 -9.55332e-06 1.88059e-05
79 1 2.78003 4.42761 1.95651 -2.10088e-06 -2.12707e-05 4.86092e-06 2.19199e-05
80 1 4.72024 9.94179 4.90943 -8.84114e-06 -9.94114e-06 -1.75879e-07 1.3305e-05
81 1 4.11463 5.67472 0.166593 2.70856e-05 6.55839e-06 1.95598e-05 3.40474e-05
82 1 11.1144 1.9148 10.508 -3.31538e-05 2.20237e-05 -3.79745e-05 5.50117e-05
83 1 1.83583 2.64569 9.31798 1.35081e-05 -4.00042e-05 2.69965e-05 5.0116e-05
84 1 0.327582 0.484171 8.47815 -3.25281e-05 -1.13521e-05 -2.21739e-05 4.09711e-05
85 1 11.3238 1.71154 5.29464 -8.74347e-06 2.7805e-05 1.5217e-05 3.28804e-05
86 1 3.53228 1.84368 2.66175 -4.21045e-05 -1.14362e-05 -1.66832e-05 4.67109e-05
87 1 4.40087 3.03791 0.523509 4.17625e-05 9.53088e-06 -2.00946e-06 4.28834e-05
88 1 0.633744 11.4815 6.18093 1.7667e-05 -1.90656e-05 9.45643e-06 2.76595e-05
89 1 2.12558 0.586987 4.4316 4.339e-06 1.38781e-05 7.48378e-06 1.63535e-05
90 1 1.77308 10.4141 8.35473 -1.85832e-05 1.63491e-07 5.56109e-06 1.93981e-05
91 1 0.679217 8.91503 6.49169 1.9718e-05 7.07383e-06 -2.05495e-05 2.93449e-05
92 1 2.13868 10.0972 4.60932 -8.45626e-06 6.99439e-06 -2.98069e-05 3.17629e-05
93 1 1.48659 9.80638 2.14577 -8.88656e-06 1.27565e-05 4.33584e-05 4.60614e-05
94 1 2.70133 10.8899 0.102424 2.18755e-05 1.99637e-05 1.43994e-05 3.29307e-05
95 1 1.51749 2.9138 0.343563 -2.24606e-05 -5.97018e-06 7.48444e-06 2.44159e-05
96 1 3.2777 8.89492 6.81525 3.12039e-06 -1.3998e-06 -8.26883e-06 8.94818e-06
97 1 4.45032 10.341 8.75787 1.89511e-05 6.03135e-06 -1.29166e-05 2.37142e-05
98 1 0.192538 9.3683 10.1521 5.45057e-06 -2.21979e-05 -4.08622e-06 2.32196e-05
99 1 2.73041 9.41755 10.5689 -8.95765e-05 1.79345e-05 -3.65767e-05 9.84046e-05
100 1 6.94648 7.94087 9.27519 -1.23045e-05 2.05704e-05 4.37301e-06 2.43653e-05
101 1 5.83746 8.83874 7.05771 3.8574e-07 1.11829e-05 -4.64215e-06 1.21143e-05
102 1 7.28996 9.90218 5.16446 8.03826e-06 -8.40488e-06 -2.99584e-06 1.20096e-05
103 1 6.25345 8.36386 3.269 -1.53214e-05 -1.13737e-05 5.51063e-06 1.98614e-05
104 1 7.66946 9.41689 1.39086 8.06113e-06 1.54072e-05 3.75949e-05 4.14215e-05
105 1 5.53979 6.7146 11.1162 -2.23173e-05 0.000100676 9.21921e-06 0.000103531
106 1 4.34978 7.78526 8.96986 -2.4497e-05 -1.23438e-05 1.42815e-07 2.74316e-05
107 1 3.32827 6.29668 7.03521 -9.38764e-07 -2.90715e-05 -1.95541e-05 3.50485e-05
108 1 7.40348 7.36105 5.54457 -1.69975e-05 -1.74241e-05 1.51538e-05 2.86732e-05
109 1 4.35422 6.32173 2.65604 1.68083e-05 1.01252e-05 -2.26046e-05 2.99334e-05
110 1 5.76328 7.5347 0.790193 1.20304e-05 -3.02426e-05 1.45612e-05 3.56563e-05
111 1 3.01194 4.11762 11.2505 5.55998e-05 -1.30164e-05 2.17349e-05 6.10997e-05
112 1 4.44726 5.21199 9.30702 -1.16149e-05 -1.63035e-05 -1.02982e-06 2.00442e-05
113 1 3.35525 3.74808 7.48242 3.2642e-05 2.51053e-05 2.95391e-05 5.06788e-05
114 1 4.96779 4.82247 5.63588 1.2722e-05 -4.26152e-06 -1.87847e-05 2.30841e-05
115 1 4.99611 3.80825 3.24722 -2.35619e-06 2.34485e-06 2.52607e-05 2.54785e-05
116 1 6.3278 4.8089 1.28724 5.79659e-06 -6.24646e-06 3.96131e-06 9.39738e-06
117 1 2.94719 1.50889 11.589 2.88943e-05 -2.17998e-05 2.88362e-05 4.62778e-05
118 1 4.46874 2.59078 9.68001 1.60481e-05 -3.60691e-05 7.49902e-06 4.01841e-05
119 1 1.97889 1.59946 6.88954 2.16314e-05 -2.82475e-06 -1.76136e-05 2.80381e-05
120 1 3.5043 2.72408 5.11816 -2.83136e-05 1.40041e-05 -2.06319e-05 3.77286e-05
121 1 4.54377 0.455915 0.773833 -2.06978e-06 -2.9711e-05 -4.80023e-06 3.01673e-05
122 1 6.17217 1.46884 2.74644 -1.59189e-05 -1.27866e-05 -2.19807e-05 3.0001e-05
123 1 3.14531 0.460094 8.98093 4.46346e-05 3.11553e-06 2.56675e-05 5.15827e-05
124 1 7.17706 11.9138 0.757414 -1.15284e-05 1.50112e-05 -8.74949e-07 1.89475e-05
125 1 1.45752 11.7037 10.64 2.30638e-06 2.44227e-05 -1.32344e-05 2.78736e-05
126 1 3.29949 11.4715 6.55221 1.67136e-05 2.29684e-05 6.16809e-06 2.90678e-05
127 1 3.61179 11.2454 2.75291 -6.38439e-06 3.10862e-06 2.29518e-05 2.40251e-05
128 1 5.92307 11.3965 6.84686 2.70978e-05 -1.26977e-05 -3.31943e-05 4.46921e-05
129 1 9.57422 7.91076 12.7178 2.60808e-05 -4.00751e-05 3.37671e-05 5.85358e-05
