ITEM: TIMESTEP
0
ITEM: NUMBER OF ATOMS
148
ITEM: BOX BOUNDS pp pp pp
0.0000000000000000e+00 1.1400361000000000e+01
0.0000000000000000e+00 1.2098903999999999e+01
0.0000000000000000e+00 1.2816801000000000e+01
ITEM: ATOMS id type x y z fx fy fz v_fmag
1 1 1.08624 2.93638 10.0162 -5.35091e-05 -6.97514e-06 7.63309e-06 5.4499e-05
2 1 6.14393 11.7085 5.21568 3.58678e-05 8.46735e-06 -6.52156e-05 7.49084e-05
3 1 4.57708 11.4035 9.38837 -7.06597e-06 3.36205e-05 1.35021e-05 3.6913e-05
4 1 7.317 0.888434 3.30724 -6.138e-06 -2.69757e-05 2.61838e-05 3.80914e-05
5 1 5.74217 0.620711 7.54834 3.04117e-05 6.82252e-06 7.35351e-05 7.98676e-05
6 1 8.48429 2.17985 1.4238 4.53118e-05 -3.69483e-05 -3.1314e-05 6.63242e-05
7 1 8.09348 3.21509 3.75326 -3.60929e-05 -4.74954e-06 -2.5414e-05 4.43974e-05
8 1 5.2365 11.489 0.87032 6.4231e-05 -2.54499e-05 -9.6971e-06 6.97664e-05
9 1 6.93653 1.93869 5.64411 9.95161e-06 -1.95469e-05 -6.62118e-06 2.29119e-05
10 1 8.85088 1.08766 11.9071 -1.31876e-05 -2.43825e-05 -5.96909e-05 6.58136e-05
11 1 9.21022 4.55571 1.82689 -1.9012e-06 -1.13375e-05 -9.9665e-06 1.52146e-05
12 1 6.78936 4.0767 1.74667 2.86495e-05 2.28243e-05 -1.31914e-05 3.89327e-05
13 1 10.0247 4.75702 6.09504 -2.38084e-05 -1.70601e-05 3.7934e-05 4.79258e-05
14 1 8.86595 3.4561 8.01578 -5.26523e-05 -5.74086e-06 -2.55927e-06 5.30261e-05
15 1 10.8526 4.91512 10.3898 -3.09761e-05 -1.2197e-05 1.04384e-05 3.48891e-05
16 1 7.68016 2.13609 9.9392 -1.01029e-05 5.0427e-05 -5.31439e-05 7.39542e-05
17 1 5.79412 10.5489 11.4031 2.47777e-05 1.60582e-05 -5.12777e-05 5.9171e-05
18 1 6.28322 9.54273 9.07726 -8.81957e-06 3.32555e-06 -2.48995e-05 2.66239e-05
19 1 7.41919 10.8541 7.23715 -8.30814e-06 3.42884e-05 -6.23345e-05 7.16262e-05
20 1 7.22244 3.06942 12.2473 -3.00083e-05 -9.05433e-06 -2.58553e-05 4.06322e-05
21 1 7.46622 6.44249 2.12701 -2.24885e-05 1.77357e-05 2.27706e-05 3.65895e-05
22 1 6.33668 5.12317 4.01702 -4.39065e-06 -2.7059e-05 -2.99265e-05 4.0584e-05
23 1 8.33868 6.63861 6.43205 -1.87961e-06 -2.78718e-05 -2.98228e-05 4.08628e-05
24 1 7.1806 5.33369 8.33687 4.21113e-05 1.36586e-05 9.44997e-06 4.52683e-05
25 1 6.79858 6.41204 10.6585 2.46099e-05 -1.50546e-06 -6.7041e-05 7.14311e-05
26 1 6.14744 7.28137 0.119719 -3.30263e-05 -5.87752e-05 -1.43013e-06 6.74337e-05
27 1 5.77647 8.32047 2.45583 1.27811e-06 -7.31373e-06 -2.13018e-07 7.42763e-06
28 1 7.06783 7.48722 4.44349 8.76278e-06 1.10725e-05 -1.69126e-06 1.42213e-05
29 1 6.65206 8.51161 6.75251 3.91578e-05 3.08728e-05 -4.78078e-05 6.908e-05
30 1 5.50478 7.18768 8.64071 2.22941e-05 1.003e-05 -5.20897e-08 2.44465e-05
31 1 7.64646 8.8691 11.1283 2.00182e-05 2.79678e-05 -9.33531e-06 3.56381e-05
32 1 6.88388 9.60742 0.595301 4.70461e-05 1.6555e-06 -1.21645e-05 4.86215e-05
33 1 6.54009 10.6687 2.88497 -2.06593e-05 1.70663e-05 2.77476e-06 2.694e-05
34 1 5.36934 9.36582 4.75395 1.09396e-05 -1.17101e-05 -3.19076e-05 3.57057e-05
35 1 9.63395 3.50664 12.3074 -2.70971e-05 -2.49654e-05 -2.19969e-06 3.69102e-05
36 1 8.42877 4.51397 10.3412 2.47276e-05 -4.28515e-05 1.44402e-07 4.94745e-05
37 1 9.91094 6.94138 2.20631 8.72453e-06 -1.50005e-05 -9.82004e-06 1.99391e-05
38 1 10.7675 7.10055 6.51615 1.32826e-06 -2.30647e-05 -8.88272e-06 2.47518e-05
39 1 8.16898 1.10732 7.64523 -9.89301e-06 3.1075e-05 -3.40904e-06 3.27894e-05
40 1 10.8944 2.6781 1.45026 -4.53029e-05 2.16927e-05 -2.50228e-05 5.61165e-05
41 1 10.5074 3.68521 3.82759 3.14865e-06 -2.26658e-05 -1.35552e-05 2.65969e-05
42 1 9.50758 2.3647 5.7542 -6.43919e-06 4.49299e-05 -3.512e-05 5.73897e-05
43 1 10.0806 2.61849 10.0031 4.22692e-05 2.23565e-05 4.62933e-05 6.6555e-05
44 1 11.2524 1.57238 11.898 1.87128e-05 1.45462e-05 -3.49402e-05 4.22206e-05
45 1 9.78051 1.30114 3.43475 3.4596e-05 3.13428e-05 -3.71761e-05 5.96768e-05
46 1 0.224399 5.02935 1.87946 -2.40196e-05 -3.07044e-06 2.82408e-05 3.72009e-05
47 1 11.185 6.07636 4.17946 -6.72512e-05 9.69735e-06 -8.20393e-06 6.84402e-05
48 1 10.3976 5.87172 12.7168 7.22078e-06 1.86029e-05 -2.67315e-05 3.33584e-05
49 1 10.657 9.33967 2.58691 9.55479e-06 -9.59261e-06 -9.53969e-06 1.65625e-05
50 1 10.397 8.20624 8.88766 2.47793e-05 -2.59878e-05 -2.1649e-05 4.19293e-05
51 1 10.2584 10.3731 4.94203 1.80843e-06 -7.74574e-06 2.1781e-05 2.31879e-05
52 1 10.1651 0.299488 1.11071 -4.84882e-05 -6.55724e-06 -1.153e-05 5.02697e-05
53 1 11.2827 3.90857 8.05076 1.62029e-05 -1.38044e-05 2.16516e-07 2.12871e-05
54 1 7.06649 11.8555 9.60674 4.55525e-05 -1.35988e-05 -3.09648e-05 5.67343e-05
55 1 8.60788 0.0965704 5.31159 3.31414e-06 -3.44718e-05 7.77708e-07 3.46395e-05
56 1 7.69101 11.9396 0.957995 -7.14535e-05 -3.98313e-05 -3.52151e-05 8.90631e-05
57 1 9.60807 5.82957 8.43906 7.97107e-06 -1.28787e-05 -2.4415e-05 2.87314e-05
58 1 9.22212 6.9233 10.778 -1.86111e-06 -4.56266e-05 -3.44445e-06 4.57943e-05
59 1 7.9581 5.41274 12.6448 -3.41359e-05 -4.69363e-05 -3.08944e-05 6.57476e-05
60 1 8.59482 7.72537 0.265811 1.36979e-05 3.25294e-05 5.15066e-06 3.56697e-05
61 1 8.21951 8.79808 2.55772 -5.33517e-05 1.58299e-05 -4.69827e-05 7.28311e-05
62 1 9.507 7.98705 4.53494 6.92232e-05 -1.25091e-05 -5.6969e-07 7.03467e-05
63 1 9.09355 8.99005 6.87664 -1.3656e-05 4.47665e-05 1.31695e-05 4.86206e-05
64 1 7.94344 7.70485 8.76507 -2.62254e-05 -2.2832e-05 -2.10369e-05 4.06401e-05
65 1 11.0008 8.26437 0.196977 -1.74113e-05 1.64573e-05 7.09266e-06 2.49861e-05
66 1 9.28589 10.0693 0.572219 -7.61505e-05 -9.07327e-05 5.28328e-05 0.000129702
67 1 8.99863 11.1289 2.94433 7.39553e-06 1.3136e-05 -4.11599e-05 4.38336e-05
68 1 7.8229 9.85 4.88395 -1.41041e-05 -7.39997e-06 -3.59964e-06 1.63292e-05
69 1 9.82841 11.3279 7.25871 2.62857e-05 1.12804e-05 -5.54259e-05 6.23717e-05
70 1 8.78068 10.0506 9.28339 1.32597e-05 7.02865e-05 -4.18373e-05 8.28636e-05
71 1 10.3292 11.1709 11.5117 -6.47414e-05 2.62805e-05 -9.6322e-05 0.000118996
72 1 8.76625 5.60781 4.10927 -1.37196e-05 -2.4364e-05 -3.85294e-05 4.76062e-05
73 1 6.44008 2.97822 7.94142 1.96683e-05 -5.338e-05 1.42966e-05 5.86571e-05
74 1 7.6215 4.27098 6.01692 -1.38641e-06 -1.25047e-05 -1.44881e-05 1.91884e-05
75 1 4.35726 3.60906 1.65338 1.94547e-05 -3.01783e-05 5.6185e-05 6.66781e-05
76 1 1.79313 7.5289 6.5662 6.56353e-06 -1.68733e-05 2.17872e-05 2.83279e-05
77 1 0.640013 6.24546 8.47558 -4.69853e-05 2.25579e-06 -6.82639e-07 4.70444e-05
78 1 2.68601 7.68598 10.9547 5.87158e-06 -1.76497e-05 -3.46982e-05 3.93694e-05
79 1 2.05066 8.71651 0.342291 3.7091e-05 6.88358e-05 2.32223e-05 8.15683e-05
80 1 1.65829 9.75091 2.63827 -4.88709e-05 8.81306e-05 -3.18565e-05 0.000105689
81 1 0.520924 8.43176 4.58604 -7.1321e-05 1.15872e-05 2.64957e-05 7.69609e-05
82 1 2.20018 6.52197 4.25178 5.58205e-06 1.17869e-05 2.01662e-05 2.40159e-05
83 1 2.52803 9.90658 6.90944 -8.52186e-06 -1.23029e-05 -2.33161e-06 1.51466e-05
84 1 0.812176 9.53918 11.1581 1.24578e-05 -5.15589e-06 1.77197e-05 2.22659e-05
85 1 0.381628 10.5945 0.661573 2.51891e-05 -7.07792e-06 4.26591e-05 5.00438e-05
86 1 1.21576 10.8201 4.89438 1.53772e-05 2.47641e-05 2.00979e-05 3.54068e-05
87 1 11.1866 10.6245 9.19566 -3.70862e-05 -3.42529e-05 3.82467e-05 6.33361e-05
88 1 2.38676 12.0544 3.03118 -1.54341e-05 3.23262e-05 7.97721e-05 8.74458e-05
89 1 0.841454 11.8042 7.21073 8.48098e-06 5.66417e-05 7.22126e-05 9.21676e-05
90 1 1.42297 8.58341 8.899 5.9777e-06 2.82012e-06 2.0448e-06 6.91861e-06
91 1 0.905164 7.4095 2.24887 -3.48306e-05 -8.32878e-06 1.32214e-05 3.81752e-05
92 1 1.45982 6.3677 12.7994 1.55872e-05 4.20318e-06 -1.4289e-06 1.62071e-05
93 1 1.88175 5.32744 10.464 3.71984e-05 -1.19772e-05 3.83704e-05 5.47674e-05
94 1 1.03291 5.1391 6.14292 3.42643e-05 7.24519e-06 -1.26599e-05 3.72399e-05
95 1 0.245182 7.21091 10.7994 1.20295e-05 1.99852e-05 -1.99584e-05 3.06994e-05
96 1 0.122195 9.43914 6.91221 -2.00771e-05 -8.84823e-06 -8.0749e-06 2.33791e-05
97 1 1.16813 0.816683 1.04904 1.61752e-07 9.89143e-06 3.96117e-05 4.08283e-05
98 1 0.736101 1.76319 3.39383 8.66592e-06 2.20171e-05 6.11516e-05 6.55696e-05
99 1 1.46002 11.8984 11.4432 2.71729e-05 5.71455e-06 1.70963e-05 3.26083e-05
100 1 0.673385 3.98696 12.3533 3.7907e-05 -5.31822e-05 2.62126e-05 7.03732e-05
101 1 2.71103 3.31826 5.82957 1.12413e-05 3.50292e-05 4.06027e-05 5.47905e-05
102 1 1.57622 2.05545 7.66235 8.33084e-06 -1.91763e-05 1.3122e-05 2.46844e-05
103 1 3.55047 3.49374 10.161 -6.74315e-08 4.20436e-05 1.12245e-05 4.35162e-05
104 1 2.33323 2.14989 12.0252 -1.29467e-05 -2.48864e-05 4.02375e-05 4.90511e-05
105 1 2.63402 5.49083 1.97669 3.76493e-05 1.67203e-05 -1.97093e-05 4.56672e-05
106 1 1.48723 4.13808 3.84691 1.33344e-05 5.57338e-06 5.90102e-06 1.56106e-05
107 1 3.47102 5.66516 6.25616 3.83952e-05 -4.89822e-05 -1.17164e-05 6.33302e-05
108 1 2.31941 4.36511 8.16659 1.60265e-05 2.99758e-06 5.31739e-05 5.56174e-05
109 1 3.60156 1.27807 1.19306 2.1076e-05 4.06053e-05 1.85541e-05 4.93685e-05
110 1 3.18387 2.28043 3.51979 -5.3905e-06 2.24787e-05 7.22963e-06 2.42201e-05
111 1 1.92711 1.02999 5.38931 -9.13826e-06 -1.85742e-05 1.8485e-05 2.77526e-05
112 1 2.75379 1.14909 9.6676 8.2028e-06 -4.43783e-05 2.08384e-05 4.97088e-05
113 1 2.93721 8.88598 4.62284 3.43063e-05 5.37967e-05 6.56755e-05 9.15657e-05
114 1 4.96762 10.3832 7.06655 4.61434e-05 -4.16329e-05 -8.83328e-06 6.27737e-05
115 1 3.83057 9.05877 8.94243 -2.1112e-05 3.13286e-05 4.72452e-05 6.04922e-05
116 1 3.29134 10.063 11.2251 5.94569e-05 4.72468e-05 3.80166e-06 7.60384e-05
117 1 2.81219 11.0513 0.683431 -5.48206e-05 -3.65972e-05 1.46678e-06 6.59303e-05
118 1 3.6679 11.2442 5.04815 -4.66826e-05 2.62289e-05 4.18735e-05 6.7975e-05
119 1 2.15305 10.933 9.20006 4.47929e-05 -2.94543e-06 4.68048e-05 6.48519e-05
120 1 4.85625 0.424172 3.19774 1.06222e-05 -1.4415e-05 4.32699e-07 1.79112e-05
121 1 3.28824 0.160579 7.35925 -2.46981e-06 1.02279e-05 6.90422e-05 6.98394e-05
122 1 6.03881 1.73457 1.32289 -7.3309e-05 -4.77301e-05 -3.74381e-06 8.75579e-05
123 1 5.63534 2.75977 3.64851 7.99364e-06 -2.80049e-05 1.16735e-05 3.13759e-05
124 1 4.444 1.46398 5.52587 -2.15414e-05 -1.86003e-05 -8.5325e-07 2.84733e-05
125 1 5.2422 1.64148 9.83099 1.27948e-05 3.97762e-05 2.68992e-07 4.17843e-05
126 1 6.43631 0.755636 11.828 -2.53046e-05 -8.608e-06 -1.54569e-05 3.08761e-05
127 1 5.54248 4.94975 12.5624 6.68607e-05 -3.59332e-06 2.81107e-05 7.26187e-05
128 1 4.09029 10.1883 2.72013 -1.93039e-05 -2.65107e-05 3.98836e-05 5.16349e-05
129 1 9.50163 0.309422 9.5987 1.84022e-05 -5.29696e-05 -4.04249e-06 5.62207e-05
130 1 4.46326 9.09379 0.398269 -3.12455e-05 -1.38726e-05 1.75874e-05 3.84454e-05
131 1 3.07315 6.70605 8.59251 -2.11175e-06 1.45594e-05 3.64229e-05 3.92818e-05
132 1 3.98459 0.289405 11.6701 -6.10975e-05 7.90149e-06 4.99461e-06 6.18085e-05
133 1 1.92344 3.1486 1.53299 -7.35744e-06 -1.67746e-05 1.94428e-05 2.67122e-05
134 1 5.17422 3.79926 5.94315 2.60067e-05 2.85254e-05 2.29131e-05 4.48894e-05
135 1 4.0086 2.49427 7.83412 -2.1344e-05 -2.46679e-05 -2.7078e-05 4.23944e-05
136 1 6.00265 4.009 10.2587 -4.27436e-05 -1.36888e-05 -4.79352e-05 6.56672e-05
137 1 4.77546 2.62493 12.1471 -2.05943e-05 1.53282e-06 -2.05707e-05 2.91484e-05
138 1 5.02925 5.9811 1.98684 -7.32361e-06 4.07903e-05 -1.32995e-05 4.35242e-05
139 1 3.91392 4.63715 3.94829 -2.22753e-05 2.74419e-05 -3.59978e-06 3.55275e-05
140 1 5.9073 6.14855 6.32872 -2.74684e-05 -3.17108e-05 2.16719e-05 4.72204e-05
141 1 4.74574 4.8411 8.26676 2.73742e-05 4.14197e-05 6.47024e-05 8.15557e-05
142 1 4.34079 5.873 10.6061 -1.83384e-05 -2.91729e-05 -1.4332e-05 3.73197e-05
143 1 3.12812 4.55125 12.4871 3.88301e-06 6.41908e-06 2.56033e-05 2.66798e-05
144 1 3.34029 7.83629 2.302 2.59161e-05 2.01088e-05 7.39639e-06 3.36261e-05
145 1 4.62841 6.99854 4.32549 4.27104e-06 -2.17309e-05 -3.70037e-05 4.31248e-05
146 1 4.21564 8.02355 6.63763 -2.59791e-07 1.60161e-05 -8.8537e-06 1.83022e-05
147 1 5.11927 8.2445 10.9195 6.07109e-05 2.97007e-05 -4.83612e-05 8.31069e-05
148 1 10.6323 1.52663 7.79232 4.53921e-05 3.46989e-05 -1.45556e-05 5.89603e-05
