ITEM: TIMESTEP
0
ITEM: NUMBER OF ATOMS
149
ITEM: BOX BOUNDS pp pp pp
0.0000000000000000e+00 1.1400361000000000e+01
0.0000000000000000e+00 1.2098903999999999e+01
0.0000000000000000e+00 1.2816801000000000e+01
ITEM: ATOMS id type x y z fx fy fz v_fmag
1 1 1.71435 0.407981 6.80506 -5.78587e-05 7.74074e-06 8.56915e-06 5.89998e-05
2 1 4.829 8.39788 9.80333 -1.70756e-05 1.99731e-05 -3.8781e-05 4.68451e-05
3 1 8.55086 9.56495 12.038 -1.77717e-05 -1.56383e-05 6.66478e-06 2.45929e-05
4 1 4.87454 11.3723 0.278859 -2.39712e-05 2.8453e-05 -3.44227e-05 5.06864e-05
5 1 5.42039 10.6088 5.89245 -2.49554e-05 -1.04e-05 1.70217e-05 3.19479e-05
6 1 7.62316 10.7803 9.87965 4.26027e-05 5.03066e-07 -2.01427e-05 4.71272e-05
7 1 6.50676 0.293284 11.3476 3.32038e-06 -1.35117e-05 -3.53494e-06 1.43557e-05
8 1 6.36625 9.38266 8.07937 3.88129e-05 3.12339e-05 9.22942e-07 4.98282e-05
9 1 9.429 11.3261 4.59465 -1.77028e-05 2.67793e-05 -4.24722e-05 5.32392e-05
10 1 10.1256 1.16177 9.74002 -9.81127e-05 3.33098e-05 1.35455e-05 0.000104495
11 1 8.54215 0.467413 2.44091 1.45743e-05 -1.78499e-05 1.07548e-05 2.54302e-05
12 1 9.74534 1.84897 4.23914 -2.62741e-05 3.435e-05 -4.56683e-05 6.28955e-05
13 1 8.17491 0.871149 5.96116 -3.60181e-05 1.29386e-06 7.47455e-06 3.68082e-05
14 1 10.9666 3.25931 6.03461 5.58599e-05 9.81531e-06 -1.46724e-05 5.85828e-05
15 1 9.39398 2.3139 7.70964 8.73517e-06 -1.80487e-05 4.29999e-05 4.74452e-05
16 1 9.04671 11.735 8.06554 -1.76571e-05 9.48823e-06 -3.49157e-05 4.02604e-05
17 1 6.65211 8.94319 4.53879 -5.73679e-05 -1.71258e-05 -4.07065e-06 6.00078e-05
18 1 8.17858 9.87808 2.86679 -7.0789e-06 -8.45137e-06 8.27403e-06 1.37839e-05
19 1 6.99823 8.58419 0.943912 1.35725e-05 8.30775e-06 2.30147e-05 2.79805e-05
20 1 6.64534 2.9059 10.9256 -1.06075e-05 -5.70378e-06 -1.913e-05 2.26055e-05
21 1 5.22179 1.95126 12.7397 6.32183e-05 -4.00276e-06 4.16492e-05 7.58105e-05
22 1 6.40353 3.35135 1.68124 3.2167e-05 2.84942e-05 -1.14873e-05 4.44814e-05
23 1 7.6164 4.7431 3.44962 -5.79926e-05 2.9556e-07 1.26889e-05 5.93653e-05
24 1 6.08993 3.80826 5.12161 2.78739e-05 -5.80393e-05 -4.28229e-05 7.7326e-05
25 1 7.27023 5.1021 7.04452 1.32227e-05 -2.41353e-05 -1.22833e-05 3.01369e-05
26 1 5.71764 4.12135 8.76721 9.90887e-07 -1.85023e-05 2.76208e-06 1.87336e-05
27 1 6.96861 5.5238 10.5779 -2.34115e-05 3.4969e-05 -1.66362e-05 4.52514e-05
28 1 5.42883 4.5525 12.3074 -1.0839e-05 3.45963e-05 -7.93763e-06 3.71132e-05
29 1 6.67928 5.96803 1.26948 2.47642e-05 -1.07103e-05 4.13611e-05 4.93833e-05
30 1 7.89106 7.29907 3.13119 -6.2432e-05 -4.23807e-05 -3.04263e-07 7.54585e-05
31 1 6.37743 6.38724 4.85719 3.49412e-05 3.90168e-07 2.28253e-05 4.17377e-05
32 1 7.58919 7.71823 6.71894 1.79523e-05 1.53636e-05 -2.94112e-06 2.38113e-05
33 1 6.05124 6.74553 8.43474 -2.96198e-05 3.80513e-06 -2.59093e-05 3.95361e-05
34 1 5.74953 7.1829 11.9423 2.95785e-05 -2.99577e-05 -1.07068e-05 4.34394e-05
35 1 9.14095 2.67949 11.3458 9.80643e-06 -3.5862e-05 -1.39178e-05 3.96983e-05
36 1 7.66051 1.69928 0.298097 1.03677e-05 -1.94373e-06 1.6335e-05 1.94448e-05
37 1 8.84811 3.07745 2.096 2.57917e-06 5.01784e-05 3.42504e-05 6.0808e-05
38 1 0.180996 5.43511 2.1681 2.17622e-05 -3.25019e-06 1.89904e-05 2.90653e-05
39 1 10.1067 10.5218 10.3019 -5.53818e-05 -7.61945e-05 2.62467e-05 9.77836e-05
40 1 8.94999 0.0733568 11.7053 -1.32913e-05 2.3036e-05 -2.04984e-05 3.35782e-05
41 1 10.9885 0.191494 2.86672 -5.95121e-05 1.37769e-05 -3.42856e-05 7.005e-05
42 1 10.6373 0.66935 6.36376 -8.64246e-06 5.70276e-07 1.50917e-06 8.79175e-06
43 1 10.1056 1.46954 0.703802 -2.94103e-05 -6.15681e-06 1.60976e-05 3.40882e-05
44 1 11.3003 2.82636 2.52548 -1.21585e-05 -8.60521e-06 1.02518e-05 1.80825e-05
45 1 10.6652 3.67881 9.58572 4.16535e-05 -7.15494e-06 2.83147e-05 5.08717e-05
46 1 10.3801 4.0017 0.324569 1.18644e-05 4.59944e-05 -1.21757e-05 4.90357e-05
47 1 11.2836 5.85573 5.71115 3.16235e-05 4.37284e-06 1.29066e-05 3.44347e-05
48 1 10.9945 6.25727 9.27285 -3.15119e-05 1.54063e-06 1.55705e-05 3.51826e-05
49 1 10.6557 6.62757 0.0356718 -1.56211e-05 1.06767e-05 2.59125e-05 3.20853e-05
50 1 0.20355 8.43774 5.40101 -2.11807e-05 1.31146e-05 1.33378e-05 2.8258e-05
51 1 0.0705699 11.4679 8.33678 1.8259e-05 -1.12857e-05 -4.02308e-05 4.5599e-05
52 1 9.76997 7.91168 10.654 3.6091e-05 2.59719e-05 -4.12181e-05 6.06303e-05
53 1 9.69056 10.7727 1.22768 -1.02431e-05 -9.47971e-06 -4.16221e-05 4.38997e-05
54 1 7.86494 10.3349 6.30724 3.35376e-05 1.78266e-05 6.30747e-06 3.85012e-05
55 1 6.93468 2.50601 7.35021 -4.05973e-05 -1.09777e-05 -2.40479e-05 4.84454e-05
56 1 7.33383 11.1803 0.638278 1.20157e-05 -4.06672e-05 -1.36492e-05 4.45477e-05
57 1 7.29985 8.16244 10.2274 -1.26466e-05 9.94589e-06 -1.12273e-05 1.96191e-05
58 1 10.0522 4.45921 3.90372 3.52396e-05 -3.5122e-05 5.38373e-05 7.33065e-05
59 1 9.73297 4.8817 7.45162 1.12785e-05 -2.60024e-05 -8.9124e-06 2.97113e-05
60 1 8.19363 3.88107 9.19392 -2.90916e-06 -1.25768e-05 -1.39404e-05 1.89993e-05
61 1 9.43945 5.28836 11.0019 7.40205e-05 -7.49954e-06 1.87586e-05 7.67279e-05
62 1 7.90222 4.30355 12.7259 2.46799e-05 9.14284e-06 1.69495e-05 3.13045e-05
63 1 9.13009 5.6558 1.72077 -6.93717e-06 -4.62281e-06 -2.54225e-05 2.67544e-05
64 1 10.349 7.03584 3.58341 1.28646e-05 -1.00366e-05 1.46399e-06 1.63822e-05
65 1 8.81266 6.07867 5.31703 -3.34815e-05 1.40204e-05 2.9247e-05 4.66151e-05
66 1 10.0583 7.46904 7.13116 -2.37949e-05 -2.22252e-05 2.32471e-05 4.00073e-05
67 1 8.51892 6.50336 8.86294 5.13881e-06 3.4236e-05 -3.25907e-06 3.47726e-05
68 1 8.21722 6.94074 12.3705 1.32374e-05 -6.53427e-06 3.00076e-05 3.34422e-05
69 1 9.4191 8.23849 1.45111 -3.11268e-05 -1.89343e-05 -2.36482e-06 3.651e-05
70 1 10.666 9.62948 3.29873 9.61556e-06 1.37492e-05 9.13293e-06 1.91026e-05
71 1 9.10738 8.65374 4.97306 -1.05498e-05 1.44457e-05 4.55581e-05 4.8944e-05
72 1 8.83962 9.13373 8.49788 7.51324e-06 1.36623e-05 -7.97263e-07 1.56122e-05
73 1 10.9559 9.16872 12.5871 9.4843e-06 4.38966e-05 -2.88736e-06 4.50022e-05
74 1 10.3169 10.0576 6.6999 5.57506e-06 -4.27711e-05 -4.54523e-05 6.26606e-05
75 1 8.50103 3.49196 5.61618 5.65791e-05 3.58273e-06 -7.22549e-06 5.7151e-05
76 1 7.29305 2.09938 3.82044 -5.14706e-06 2.85516e-05 4.01575e-05 4.9541e-05
77 1 0.493398 5.03407 11.4644 -3.35629e-05 6.48728e-05 2.13565e-05 7.60989e-05
78 1 1.73582 6.43112 0.459603 1.60824e-05 3.07605e-05 5.28308e-05 6.32136e-05
79 1 2.98481 7.83055 2.27727 -1.07313e-05 2.44723e-05 2.19437e-05 3.45772e-05
80 1 1.43406 6.84315 3.99421 -3.19266e-05 -3.63294e-05 -1.91104e-05 5.20033e-05
81 1 2.68711 8.25115 5.82033 1.57082e-05 1.97826e-05 -1.21264e-05 2.80205e-05
82 1 1.13227 7.25514 7.52883 -1.67705e-05 1.04187e-05 -9.61793e-06 2.19614e-05
83 1 2.06935 6.12223 9.66955 2.50257e-05 2.26254e-05 1.96649e-05 3.905e-05
84 1 0.798747 7.56405 11.1357 4.63273e-06 -3.25302e-05 -3.85714e-05 5.06698e-05
85 1 3.30192 10.427 1.95386 -2.29501e-05 -5.46378e-06 4.34643e-06 2.39886e-05
86 1 1.75423 9.4305 3.70348 7.6993e-06 -1.14914e-05 1.50129e-05 2.04137e-05
87 1 1.44635 9.86081 7.18621 -2.32051e-05 1.72954e-05 -6.77012e-06 2.97228e-05
88 1 11.3081 8.87856 8.9159 1.30521e-05 -1.59764e-05 3.35543e-05 3.9389e-05
89 1 3.60326 10.0074 11.2195 -1.09513e-05 8.79901e-06 -2.35179e-05 2.73943e-05
90 1 0.858828 10.578 1.63289 -6.29174e-05 -2.2386e-05 -3.62719e-05 7.5996e-05
91 1 2.06574 9.00738 0.182014 1.38405e-05 -3.61963e-05 -3.45508e-05 5.1918e-05
92 1 0.802356 4.67892 7.80643 3.75607e-05 -3.60471e-05 -3.30915e-05 6.16867e-05
93 1 2.37119 5.66964 6.10501 2.06403e-05 -8.72735e-06 -3.5566e-05 4.20372e-05
94 1 1.11388 4.2558 4.28495 9.93953e-06 -3.56374e-05 -2.32194e-06 3.70703e-05
95 1 0.496912 8.01666 1.88342 1.97649e-05 -3.40266e-05 -2.34457e-05 4.58057e-05
96 1 0.493398 11.0866 5.04442 -5.05793e-06 -8.3313e-07 -4.04531e-06 6.53003e-06
97 1 1.13772 9.97439 10.9055 3.60876e-05 -1.37283e-05 -6.86855e-06 3.92168e-05
98 1 2.05951 12.0679 3.33476 -4.52478e-05 -3.98186e-05 3.8432e-05 7.14836e-05
99 1 4.16297 0.117796 7.28467 1.69893e-05 1.32192e-05 -3.47459e-05 4.08737e-05
100 1 2.26739 1.50765 10.3212 -0.00021895 7.59445e-06 6.29535e-05 0.000227947
101 1 1.1538 1.17935 1.18343 3.47438e-05 4.93093e-06 -2.00758e-05 4.04288e-05
102 1 2.37474 2.59961 2.94408 2.33274e-06 2.69662e-05 2.71527e-06 2.72028e-05
103 1 0.808645 1.61839 4.65375 -6.50707e-06 -5.44623e-05 4.70904e-06 5.50514e-05
104 1 2.0093 3.10831 6.35553 -8.66886e-06 -3.76673e-05 2.03923e-05 4.37015e-05
105 1 0.529165 2.02727 8.24534 -4.86914e-06 -1.20151e-05 3.09851e-05 3.35879e-05
106 1 1.73038 3.71191 9.89973 5.21765e-05 -6.29586e-05 1.73435e-05 8.35881e-05
107 1 0.289972 2.336 11.685 -1.58164e-05 -2.98738e-05 6.17789e-06 3.43623e-05
108 1 1.42177 3.82541 0.802259 -4.23714e-06 -8.01149e-06 1.70956e-05 1.93494e-05
109 1 2.66455 5.24853 2.58741 1.47381e-05 3.88618e-06 2.31007e-05 2.76759e-05
110 1 2.57823 11.3503 9.12024 -1.64016e-05 -2.46288e-05 -2.9752e-05 4.19615e-05
111 1 11.2431 11.6659 12.5484 -6.95318e-05 -4.9222e-05 9.73079e-05 0.00012933
112 1 4.52317 11.8373 3.74936 -2.53008e-05 -1.60554e-05 3.14067e-05 4.34084e-05
113 1 6.60799 11.987 7.69038 7.80242e-06 -2.36687e-06 -3.69748e-05 3.78632e-05
114 1 3.61273 7.0587 7.95277 1.80958e-05 2.187e-05 -1.05564e-05 3.02852e-05
115 1 3.27395 7.42898 11.5324 -8.11356e-06 2.74403e-05 3.25854e-05 4.33659e-05
116 1 4.53549 8.80458 0.53683 -2.76553e-06 1.12551e-05 8.44637e-06 1.43411e-05
117 1 5.76745 10.1943 2.37229 1.02426e-05 -2.48888e-05 8.22277e-06 2.81421e-05
118 1 4.21624 9.22706 4.08472 2.38575e-05 -6.76147e-06 -3.43841e-05 4.2393e-05
119 1 3.88833 9.68453 7.66389 3.71835e-05 -1.32255e-05 -9.42638e-06 4.05757e-05
120 1 2.37469 8.65218 9.34083 5.35319e-05 4.43749e-06 -2.25675e-05 5.82636e-05
121 1 6.07485 9.80519 11.6114 -7.72516e-06 2.37571e-05 -1.06138e-05 2.71428e-05
122 1 2.33899 11.659 12.5599 2.9852e-05 4.19864e-05 -7.88032e-06 5.21162e-05
123 1 2.9682 10.8599 5.46301 1.9717e-05 -4.88456e-06 -7.75166e-05 8.01339e-05
124 1 5.12756 11.0067 9.45942 -2.85888e-05 6.49194e-05 -1.49427e-05 7.24923e-05
125 1 4.1429 0.425504 11.0653 6.42358e-05 -3.20814e-06 1.33788e-05 6.56927e-05
126 1 6.97546 11.5869 4.16805 -2.00271e-05 -9.13277e-06 -4.98281e-05 5.44732e-05
127 1 7.76175 1.29406 9.45772 5.28344e-05 1.83067e-05 1.47796e-05 5.78364e-05
128 1 6.0936 0.716206 2.02733 1.59331e-05 4.19163e-06 -1.10796e-05 1.98542e-05
129 1 5.13838 8.03048 6.26765 -7.56725e-08 3.00595e-05 -3.32403e-06 3.02428e-05
130 1 5.72637 1.11996 5.54759 -1.47564e-05 2.92969e-05 -2.63632e-06 3.29091e-05
131 1 3.91947 6.65044 4.40499 -9.69127e-06 4.08899e-07 4.56477e-05 4.6667e-05
132 1 4.21013 6.21722 0.857275 6.39484e-06 6.26158e-06 -1.6229e-05 1.85332e-05
133 1 5.3185 1.51398 9.10001 -2.63817e-05 3.71916e-05 2.08131e-05 5.01238e-05
134 1 3.63123 0.917999 1.62474 1.75222e-05 3.70372e-07 -4.67117e-05 4.98913e-05
135 1 4.8395 2.36015 3.39385 -8.96591e-07 3.32852e-05 5.57719e-05 6.49555e-05
136 1 3.28003 1.39588 5.12182 1.78508e-05 -1.08309e-05 -2.23558e-05 3.05899e-05
137 1 4.578 2.91371 6.76073 -3.56514e-05 -6.65686e-05 3.22835e-05 8.21257e-05
138 1 3.02547 2.02039 8.25671 -2.46866e-06 5.27119e-06 -2.87856e-05 2.93681e-05
139 1 4.16185 3.16455 10.5033 6.30564e-06 1.65037e-05 2.34773e-05 2.93822e-05
140 1 2.79757 2.2183 12.4685 -2.70435e-05 5.16804e-05 6.86736e-06 5.87314e-05
141 1 3.95155 3.6286 1.28858 2.60617e-05 7.84643e-05 6.50774e-06 8.29349e-05
142 1 5.1611 5.03254 3.01535 5.90154e-06 -4.17805e-05 3.14522e-05 5.26278e-05
143 1 3.60249 4.05683 4.68969 -2.58131e-05 -4.38761e-05 -2.6334e-05 5.73142e-05
144 1 4.84938 5.44785 6.53729 1.92044e-05 -3.59059e-05 5.51918e-05 6.8587e-05
145 1 3.31256 4.51759 8.21817 -1.63415e-05 -3.9637e-05 -7.53746e-06 4.3531e-05
146 1 4.49848 5.77457 10.1513 1.29903e-05 4.46787e-05 2.14576e-05 5.12384e-05
147 1 2.96032 4.80768 11.8894 8.45461e-05 1.87907e-05 -2.86905e-05 9.12375e-05
148 1 5.45581 7.6076 2.67138 1.54757e-05 3.26881e-05 1.38159e-05 3.87155e-05
149 1 0.600979 0.0798224 10.484 7.73062e-05 3.93208e-05 -7.61492e-05 0.000115417
