ITEM: TIMESTEP
0
ITEM: NUMBER OF ATOMS
129
ITEM: BOX BOUNDS pp pp pp
0.0000000000000000e+00 1.1400361000000000e+01
0.0000000000000000e+00 1.2098903999999999e+01
0.0000000000000000e+00 1.2816801000000000e+01
ITEM: ATOMS id type x y z fx fy fz v_fmag
1 1 11.2227 3.78411 4.01604 1.97761e-05 3.89991e-06 3.38653e-06 2.04395e-05
2 1 9.74995 0.0385029 2.10173 1.46374e-05 -3.15922e-05 1.58999e-05 3.8277e-05
3 1 7.63395 10.8525 8.79203 1.13298e-05 -4.73479e-05 9.16991e-05 0.000103822
4 1 6.49048 11.0024 4.96158 -1.00273e-05 -2.63924e-05 4.15626e-06 2.85374e-05
5 1 6.78357 10.8496 0.494949 2.28447e-05 2.48581e-05 1.73074e-05 3.79387e-05
6 1 9.07913 9.64968 10.4771 -7.17993e-05 4.22145e-05 -3.1533e-05 8.90592e-05
7 1 7.51854 8.32117 8.66014 7.06062e-05 8.87332e-05 2.23603e-05 0.00011558
8 1 8.26809 9.83895 6.51881 -1.68451e-05 -1.23155e-05 4.48004e-05 4.94217e-05
9 1 7.3144 8.59047 4.50728 2.35715e-05 -1.90479e-05 1.98369e-05 3.62207e-05
10 1 8.4179 9.86799 2.21272 -3.40896e-05 7.03885e-06 -4.94146e-05 6.04438e-05
11 1 9.32571 10.8673 12.7004 9.31088e-06 1.37933e-05 2.21517e-05 2.77064e-05
12 1 7.89934 8.51822 12.7731 -1.50346e-06 -1.36219e-05 1.51612e-05 2.04372e-05
13 1 7.02017 5.88904 8.9471 -1.17757e-05 -1.93774e-06 2.89961e-06 1.22812e-05
14 1 8.79802 7.30446 6.18974 4.88201e-05 1.63903e-05 1.50065e-05 5.36399e-05
15 1 9.07253 0.271677 6.77402 -2.13024e-06 3.18189e-07 -4.16653e-05 4.17209e-05
16 1 7.17112 5.98085 4.4711 -2.28404e-05 -1.68665e-05 2.06655e-05 3.51173e-05
17 1 6.60283 6.13853 0.652332 4.51999e-06 7.11074e-06 -1.75579e-05 1.94749e-05
18 1 7.57692 4.9721 11.275 7.33175e-06 2.5863e-05 -1.18229e-05 2.93671e-05
19 1 5.93994 3.67584 9.62978 2.95935e-05 2.83099e-05 1.94421e-06 4.1e-05
20 1 8.0078 4.90627 6.72435 -9.02605e-06 5.39526e-06 -8.56658e-07 1.05505e-05
21 1 6.18025 3.67295 5.09233 4.87118e-05 -1.24582e-06 5.65327e-07 4.8731e-05
22 1 8.20682 4.80839 2.1842 6.18264e-06 -6.65619e-06 -1.23252e-06 9.16782e-06
23 1 6.68713 3.48589 0.509263 1.40643e-05 1.78487e-05 -8.88957e-06 2.44009e-05
24 1 7.59081 2.40922 11.1144 1.38436e-05 1.43869e-05 -1.74684e-05 2.65287e-05
25 1 5.98165 1.08126 9.55643 -4.51612e-05 1.44096e-05 -1.29569e-06 4.7422e-05
26 1 6.98208 2.62465 7.37845 -1.76245e-05 -6.97532e-06 -1.46306e-06 1.9011e-05
27 1 5.05511 1.39272 5.52587 9.2991e-06 -4.55842e-05 4.71772e-05 6.62577e-05
28 1 7.02311 2.52011 2.83932 -1.43051e-05 -2.87598e-05 -4.71826e-06 3.24657e-05
29 1 5.54326 1.10377 1.10669 -1.76597e-06 1.04095e-05 -8.94468e-06 1.38378e-05
30 1 8.08626 7.39025 2.34004 -9.08226e-07 1.20604e-06 -7.45565e-06 7.60698e-06
31 1 8.10737 1.18499 0.504648 1.96844e-05 1.54405e-05 1.36171e-05 2.84835e-05
32 1 9.56713 2.61262 2.18049 1.0798e-05 -6.36051e-06 -8.29881e-06 1.50308e-05
33 1 7.54239 1.36619 5.07661 -1.38276e-05 -4.92939e-05 -2.82068e-05 5.84527e-05
34 1 10.6988 5.27553 6.14127 -1.19574e-05 1.42447e-05 1.09371e-05 2.15757e-05
35 1 10.8481 1.69821 8.61515 -5.93203e-05 2.43261e-05 3.25214e-05 7.18909e-05
36 1 9.97892 1.44433 4.34152 -4.1172e-06 -2.65223e-05 3.7519e-06 2.71009e-05
37 1 11.3429 2.39529 0.230071 -7.06074e-06 -1.54838e-05 -1.17483e-06 1.70582e-05
38 1 7.66874 11.9309 11.0978 -1.93484e-05 1.21503e-05 -2.15083e-06 2.29481e-05
39 1 10.2477 11.3039 8.87312 -4.39526e-05 3.15295e-05 -1.02356e-05 5.50519e-05
40 1 8.94679 11.1791 4.43803 1.84587e-05 -2.33793e-05 -1.35436e-05 3.27223e-05
41 1 0.197547 12.0173 0.171913 9.97107e-06 -1.94079e-05 -2.7533e-06 2.19925e-05
42 1 0.0892682 10.3468 10.9123 -1.91554e-05 2.52929e-05 -7.27485e-07 3.17362e-05
43 1 9.89552 8.74858 8.152 -0.000103022 -4.46851e-05 5.07519e-05 0.000123232
44 1 10.6868 10.4276 6.32964 1.78903e-05 1.4764e-05 1.76753e-05 2.91625e-05
45 1 9.86208 8.80955 4.05651 2.14674e-05 -2.94694e-05 -6.98707e-06 3.71229e-05
46 1 0.0151135 11.2099 3.91472 7.59527e-06 -1.34367e-05 2.38422e-05 2.84022e-05
47 1 10.8946 9.89836 1.70313 6.68255e-06 -2.2658e-06 1.2923e-05 1.47239e-05
48 1 10.3692 8.45035 12.3603 3.94304e-07 -2.29785e-05 2.27016e-05 3.23037e-05
49 1 8.70972 7.18455 10.6157 1.32885e-05 2.88144e-05 6.92056e-06 3.24769e-05
50 1 11.2361 7.88034 5.93482 2.98302e-05 1.48398e-05 -4.82469e-05 5.8633e-05
51 1 9.62255 6.10844 3.97605 9.73392e-06 1.60454e-05 -1.74776e-05 2.56451e-05
52 1 10.647 7.40642 1.99612 -2.5572e-05 -3.19624e-05 1.49396e-05 4.35742e-05
53 1 9.15164 6.2154 0.177154 -1.91277e-06 3.28666e-06 1.13879e-06 3.96959e-06
54 1 10.2648 5.14109 10.724 2.57551e-05 4.04379e-05 7.64135e-06 4.85483e-05
55 1 8.70886 3.80196 9.07477 2.9475e-05 1.0757e-05 -1.40765e-05 3.43895e-05
56 1 9.64247 6.1968 8.38361 3.83127e-06 1.26916e-05 5.58061e-06 1.43839e-05
57 1 8.6859 3.7363 4.48392 1.16972e-05 -1.20577e-05 2.04537e-06 1.69233e-05
58 1 10.7745 4.83522 1.74762 2.0464e-05 -1.60443e-05 -7.35419e-06 2.70237e-05
59 1 9.20498 3.62991 12.6869 1.47577e-06 7.97556e-06 2.11956e-05 2.26945e-05
60 1 9.93733 1.09071 11.2111 -3.78539e-07 -5.88302e-06 -2.63643e-05 2.70153e-05
61 1 8.43029 1.21013 9.00432 3.50207e-05 2.89658e-05 -4.76999e-05 6.58844e-05
62 1 9.66987 2.84057 6.67595 8.76226e-06 6.6962e-06 1.25977e-05 1.67427e-05
63 1 6.3866 0.130633 7.19973 -2.78886e-05 5.01577e-05 -0.00010974 0.000123841
64 1 11.3535 4.26315 8.47102 1.02314e-05 1.56502e-05 7.09017e-06 1.99971e-05
65 1 7.27291 0.0176877 2.73807 -2.78033e-06 1.12038e-05 -2.65054e-06 1.1844e-05
66 1 4.94786 10.8655 9.19336 -8.48671e-06 1.19268e-05 3.60217e-05 3.88823e-05
67 1 2.29392 8.06318 5.68564 4.35493e-05 -2.49818e-05 1.18313e-05 5.15811e-05
68 1 3.40171 9.86912 3.56569 -1.12384e-05 1.60186e-05 4.78875e-06 2.01452e-05
69 1 2.99408 8.56506 1.29184 -1.57021e-05 -1.44044e-07 2.46466e-05 2.92239e-05
70 1 3.58531 6.97519 11.7256 6.88381e-06 5.16897e-06 -5.45032e-06 1.01888e-05
71 1 1.63461 5.5139 10.0707 3.04023e-05 -3.1888e-05 -1.4969e-05 4.65318e-05
72 1 3.75871 6.86911 7.31407 4.32697e-06 2.97371e-08 -6.93137e-06 8.17113e-06
73 1 2.08333 5.49509 5.69415 -2.34654e-05 -2.51978e-05 -1.45453e-05 3.7378e-05
74 1 3.09457 7.24514 3.44811 2.14914e-05 4.1066e-06 2.6356e-05 3.42547e-05
75 1 1.61783 6.17335 1.5625 -4.01946e-06 5.33976e-06 -2.13062e-05 2.23299e-05
76 1 2.42372 4.64263 12.3713 1.08489e-05 -3.72974e-05 9.20001e-06 3.99179e-05
77 1 0.628922 3.16351 10.6907 -7.11993e-06 9.13419e-06 -2.00339e-05 2.31405e-05
78 1 2.7221 4.54544 7.9532 -1.73175e-05 -1.95984e-05 1.86418e-06 2.62196e-05
79 1 0.955206 3.23073 6.37559 -1.50214e-05 -8.85511e-06 8.52863e-06 1.94111e-05
80 1 3.3685 9.46041 7.56808 -3.25689e-05 -1.56883e-05 1.86886e-05 4.06954e-05
81 1 3.07389 4.73368 3.33818 -3.1765e-05 -1.02761e-05 -1.13498e-05 3.52623e-05
82 1 2.41787 2.0405 12.216 8.8446e-06 -1.8029e-05 -1.7056e-05 2.63473e-05
83 1 0.944224 0.613396 10.4962 -1.15105e-06 -1.28711e-05 2.6562e-05 2.95386e-05
84 1 1.85517 2.24628 8.58407 3.15695e-05 3.23456e-05 2.03171e-05 4.95546e-05
85 1 0.20162 0.773125 6.03973 -4.32955e-06 -1.05245e-05 -1.95803e-05 2.26473e-05
86 1 1.99049 2.52205 4.15824 -1.5077e-05 1.99572e-05 2.64905e-05 3.64328e-05
87 1 0.528828 1.23749 2.49966 -6.22625e-06 -4.42995e-06 1.91877e-06 7.8786e-06
88 1 2.39257 0.103183 4.0595 -1.3127e-05 1.76517e-05 2.80619e-05 3.56563e-05
89 1 1.24711 11.8227 8.05192 -1.97081e-05 -1.97352e-05 -9.67332e-06 2.95205e-05
90 1 2.58585 11.5744 12.1794 1.78612e-05 -2.01091e-05 2.06321e-05 3.38981e-05
91 1 0.902015 9.24798 8.03978 7.87113e-05 8.86968e-06 3.01341e-05 8.47479e-05
92 1 1.02657 8.85144 3.53889 1.3672e-05 -1.09449e-05 1.16565e-05 2.10377e-05
93 1 1.00219 6.59382 7.78754 -1.01028e-05 5.68516e-06 1.56929e-05 1.95104e-05
94 1 0.678814 6.30883 3.88101 -2.80279e-05 3.72671e-06 -3.25033e-05 4.30803e-05
95 1 1.62956 3.46026 1.75262 1.65234e-05 -9.84027e-06 -3.60814e-06 1.95672e-05
96 1 2.55138 7.8528 9.4841 1.41395e-05 2.5337e-05 1.02174e-05 3.07617e-05
97 1 4.0726 9.45538 11.4066 -4.07314e-05 -3.9368e-05 -5.8969e-06 5.69531e-05
98 1 1.7814 10.9403 1.90308 -6.4136e-06 1.00528e-05 1.91056e-05 2.25215e-05
99 1 4.13779 11.1155 5.78914 1.71648e-05 1.50701e-05 7.40762e-06 2.40127e-05
100 1 4.26168 10.8373 1.11192 -7.87545e-06 -3.56021e-05 1.89178e-05 4.10782e-05
101 1 6.54142 9.635 10.877 -1.31633e-05 4.20642e-05 1.25497e-05 4.58275e-05
102 1 5.03559 8.24884 9.16048 -4.5256e-05 1.38213e-07 2.42571e-05 5.13471e-05
103 1 5.87482 9.64097 7.13396 1.84978e-05 -1.25295e-05 -1.43197e-06 2.23876e-05
104 1 4.79155 8.52176 5.14683 1.64589e-05 1.2568e-06 -2.45022e-05 2.95438e-05
105 1 5.8932 9.79804 2.75321 -7.60075e-06 -6.43339e-06 -5.98747e-07 9.97589e-06
106 1 5.42359 8.46555 0.519531 -1.34485e-05 1.6886e-05 -1.13804e-05 2.44031e-05
107 1 6.13407 7.1252 11.1448 1.20684e-06 -1.98619e-05 2.81068e-06 2.0096e-05
108 1 4.36539 5.79384 9.56239 3.77811e-07 2.17207e-05 -3.53483e-05 4.14902e-05
109 1 6.29974 7.09601 6.71571 -4.0477e-06 6.64359e-07 -1.62994e-05 1.68076e-05
110 1 4.6488 5.88229 5.03344 9.34698e-07 -4.04429e-06 -1.26819e-05 1.33439e-05
111 1 5.56789 7.30538 2.90214 2.7352e-06 -1.17471e-05 -1.02067e-05 1.58004e-05
112 1 4.09349 6.06344 1.20932 -5.52114e-06 -1.70952e-05 1.22275e-05 2.17311e-05
113 1 5.01246 4.82664 11.8492 6.50844e-06 1.05317e-05 -1.43133e-05 1.89248e-05
114 1 3.34124 3.49513 10.2357 -1.53327e-05 -2.07486e-05 -2.68854e-05 3.72615e-05
115 1 5.34321 4.73752 7.32101 2.13502e-05 1.93723e-05 -2.74745e-05 3.98242e-05
116 1 3.66585 3.5313 5.7417 5.16318e-06 1.86849e-05 -2.5102e-05 3.17158e-05
117 1 5.65766 4.72396 2.7423 -1.31419e-06 1.71414e-05 1.6713e-06 1.72727e-05
118 1 4.12043 3.4131 1.03139 2.04465e-05 -9.13613e-06 1.27822e-05 2.57859e-05
119 1 5.02261 2.24586 11.6869 2.291e-05 -5.70589e-06 -2.73873e-05 3.61592e-05
120 1 3.44923 0.833861 10.0285 1.86703e-05 -1.37436e-06 -2.56519e-05 3.17567e-05
121 1 4.39543 2.37459 7.97365 -4.09868e-05 1.39552e-05 5.4471e-06 4.36387e-05
122 1 2.68198 1.15207 6.39488 -2.16907e-07 5.2943e-06 1.35403e-05 1.45402e-05
123 1 4.44557 2.51033 3.36217 -5.86405e-05 2.79943e-05 -4.95474e-05 8.1715e-05
124 1 2.99859 1.08907 1.68411 1.12962e-05 -1.88526e-05 -1.62114e-05 2.731e-05
125 1 4.79915 12.0815 3.33823 2.5897e-05 1.53392e-05 -7.51464e-06 3.10229e-05
126 1 2.43244 10.4945 9.80189 -2.86473e-05 1.31917e-05 -1.17051e-05 3.36407e-05
127 1 1.69209 10.4951 5.77698 -3.22669e-06 -4.14239e-05 -1.85767e-05 4.55131e-05
128 1 5.12493 11.8009 11.6459 -2.46182e-05 9.77073e-06 -1.45272e-05 3.02086e-05
129 1 11.2565 7.60742 9.95554 2.61991e-05 -2.99746e-05 3.50418e-05 5.30358e-05
