ITEM: TIMESTEP
0
ITEM: NUMBER OF ATOMS
117
ITEM: BOX BOUNDS pp pp pp
0.0000000000000000e+00 1.1464695000000001e+01
0.0000000000000000e+00 1.1317634999999999e+01
0.0000000000000000e+00 1.1648808000000001e+01
ITEM: ATOMS id type x y z fx fy fz v_fmag
1 1 2.37135 10.7029 11.5685 5.00089e-05 1.15994e-06 1.20513e-05 5.14535e-05
2 1 7.73605 6.70139 9.92974 6.33802e-06 3.1427e-05 -2.60395e-06 3.21653e-05
3 1 7.18868 5.29394 7.61328 2.43752e-05 -4.61528e-05 3.49039e-05 6.27895e-05
4 1 7.55164 6.22239 5.22828 -9.2218e-06 1.18151e-06 3.53551e-05 3.65571e-05
5 1 6.79248 4.34877 10.0111 -2.83486e-05 -4.30789e-05 3.24346e-05 6.09216e-05
6 1 8.58338 3.03626 8.79356 -6.2816e-05 -1.63214e-07 1.93687e-05 6.57345e-05
7 1 6.99371 4.83589 2.99181 -2.08694e-06 -1.54997e-06 -3.03005e-05 3.04118e-05
8 1 7.37371 5.7972 0.63049 -4.20968e-05 -3.78292e-05 3.71135e-05 6.76801e-05
9 1 7.96957 1.51803 6.49128 -3.60611e-05 6.91578e-06 -3.39577e-06 3.6875e-05
10 1 8.94358 3.91709 6.40253 5.07782e-05 3.79588e-05 8.16836e-06 6.39219e-05
11 1 8.37939 2.54736 4.15297 5.96777e-05 3.50498e-05 -1.66964e-05 7.11947e-05
12 1 8.77465 3.52853 1.77465 -6.11228e-06 1.9813e-06 -2.08466e-05 2.18143e-05
13 1 8.19301 2.08578 11.1651 -1.69425e-05 -2.56328e-05 3.18089e-05 4.42255e-05
14 1 10.3858 1.85578 5.68744 2.2065e-05 3.58406e-05 -1.30072e-05 4.40522e-05
15 1 7.60935 0.706506 8.83541 -4.48825e-05 7.44399e-05 -7.6811e-06 8.72624e-05
16 1 10.2019 1.46351 1.07664 2.73715e-05 -8.76757e-06 -6.73334e-06 2.95196e-05
17 1 4.76508 10.9367 10.5507 -1.04417e-05 9.7653e-06 -1.2465e-05 1.89675e-05
18 1 4.28347 9.51905 8.49971 -4.0672e-05 6.89944e-06 -1.786e-05 4.49532e-05
19 1 4.85921 10.4709 5.92673 -3.94772e-05 4.30441e-05 -7.27884e-06 5.88576e-05
20 1 6.54502 9.19465 3.80814 4.03225e-05 6.86543e-05 -9.05876e-05 0.000120604
21 1 6.97599 10.1674 1.67416 1.34439e-06 -1.63509e-05 7.18354e-05 7.3685e-05
22 1 6.22293 8.82111 10.47 3.71849e-05 3.62647e-05 2.9434e-05 5.9701e-05
23 1 6.70186 9.77935 8.08654 -2.62424e-06 -4.4172e-05 3.87743e-05 5.88345e-05
24 1 6.17149 8.29257 6.03759 -3.48206e-05 1.99929e-05 5.58319e-05 6.87706e-05
25 1 3.51039 7.63733 1.86158 2.01836e-05 -1.3356e-05 1.17922e-05 2.69224e-05
26 1 5.91371 7.89321 1.2238 3.41755e-05 2.30149e-05 8.27841e-05 9.24708e-05
27 1 8.33116 8.16331 0.603381 9.33396e-06 4.35841e-05 -9.1624e-05 0.00010189
28 1 7.94059 7.20761 2.89243 -8.2524e-06 -1.62612e-05 4.2601e-05 4.63398e-05
29 1 5.53296 6.92064 3.60473 3.11837e-05 1.34962e-06 2.63058e-07 3.1214e-05
30 1 8.52323 8.51263 5.30057 2.79749e-05 4.32348e-06 -2.94904e-05 4.08775e-05
31 1 9.13053 9.95374 7.80599 6.76184e-06 7.17432e-05 -0.000119283 0.00013936
32 1 0.0903971 10.1562 7.9298 -4.30537e-05 -3.42478e-05 -3.80136e-06 5.51451e-05
33 1 0.373386 11.0161 5.33893 5.90098e-06 3.72846e-05 1.02811e-05 3.91237e-05
34 1 10.537 7.82048 8.46198 2.26664e-05 -3.6922e-05 -1.664e-05 4.641e-05
35 1 10.8824 8.68891 5.98397 2.58519e-06 4.15231e-05 1.23049e-05 4.33851e-05
36 1 10.3135 7.2998 3.81924 1.61293e-05 2.94869e-05 -1.30145e-05 3.60418e-05
37 1 10.7567 8.28052 1.38554 3.38392e-05 -4.52496e-07 1.16024e-05 3.57758e-05
38 1 10.0949 6.87243 10.8577 -3.25097e-05 -1.57533e-05 2.46675e-05 4.3744e-05
39 1 9.52832 5.42231 8.64424 -5.09707e-06 4.10055e-05 -4.41672e-05 6.04828e-05
40 1 9.89918 6.31977 6.23665 3.1491e-05 -1.0677e-05 7.52108e-06 3.40917e-05
41 1 0.81638 6.52286 5.30284 5.10624e-05 -4.62826e-06 5.24716e-05 7.33625e-05
42 1 9.13827 4.47427 11.0356 2.78489e-05 1.43853e-05 4.44852e-05 5.4419e-05
43 1 5.34038 6.45561 10.6689 1.11676e-05 -3.36185e-05 3.49005e-07 3.54265e-05
44 1 10.9712 3.31021 7.97056 1.92945e-05 -1.75876e-05 -2.83913e-05 3.85703e-05
45 1 9.73282 5.92124 1.6079 1.29686e-05 1.41308e-05 -2.30204e-05 2.99634e-05
46 1 10.0223 0.982568 8.00731 4.15381e-05 7.00773e-06 -4.75007e-05 6.34889e-05
47 1 11.3326 4.19724 5.55631 6.97083e-06 2.44524e-05 -1.24522e-05 2.8312e-05
48 1 10.7767 2.81177 3.32923 -2.31638e-05 1.5944e-05 -5.04545e-06 2.85697e-05
49 1 11.1559 3.79738 0.936422 2.27314e-05 -4.67651e-06 -1.34176e-05 2.68071e-05
50 1 10.5796 2.38638 10.3625 4.79355e-06 -1.42721e-05 -5.93863e-05 6.1265e-05
51 1 7.23823 11.0562 11.085 1.30181e-07 2.60244e-05 -6.81489e-05 7.2949e-05
52 1 9.37925 10.8491 5.61208 -2.23136e-05 -3.06547e-05 8.29359e-05 9.11919e-05
53 1 9.06645 9.47762 3.09318 3.12247e-06 7.1378e-06 -3.22356e-05 3.31637e-05
54 1 9.41318 10.4355 0.836407 -1.28244e-05 -9.04574e-06 -8.15524e-06 1.76861e-05
55 1 8.67536 9.0323 9.98144 -4.87764e-05 -3.82105e-05 7.70926e-05 9.89063e-05
56 1 8.17591 7.6177 7.61502 -4.02205e-05 4.31679e-05 2.72629e-05 6.49956e-05
57 1 9.34158 4.923 4.00648 2.39986e-05 6.95345e-06 2.32848e-05 3.41536e-05
58 1 9.59832 0.0428172 10.2353 1.63131e-05 -5.6346e-05 -1.45219e-05 6.04307e-05
59 1 5.76003 7.38265 8.3135 7.7015e-06 1.12181e-05 1.58657e-05 2.09017e-05
60 1 5.17329 5.98897 6.01912 -3.3653e-05 3.85182e-05 3.00745e-05 5.93351e-05
61 1 0.954691 1.15949 7.40956 -2.31221e-05 1.52218e-05 1.88449e-05 3.34883e-05
62 1 3.66589 2.23999 4.06021 -3.18077e-05 5.82414e-06 5.00877e-06 3.27222e-05
63 1 3.09815 0.822736 1.94742 1.35181e-05 -1.46615e-05 1.04288e-05 2.25047e-05
64 1 4.04498 3.16241 1.62481 1.70038e-05 -2.07257e-05 9.03297e-06 2.82892e-05
65 1 3.43719 1.74582 11.1405 -6.0705e-06 2.25466e-05 -4.77266e-05 5.31322e-05
66 1 5.08534 0.0803114 3.39965 -3.32315e-05 -8.51517e-06 1.09067e-05 3.59972e-05
67 1 2.87856 0.392084 9.00213 6.00551e-06 9.63368e-06 -2.62032e-05 2.85566e-05
68 1 5.48555 1.02554 0.969267 -3.89083e-05 -1.64717e-05 -2.30394e-05 4.81247e-05
69 1 2.75341 11.2131 4.4314 -9.77956e-06 -1.93483e-05 -2.63062e-05 3.40883e-05
70 1 2.07345 9.77308 2.36856 5.20788e-06 -1.82451e-05 -2.29745e-06 1.91124e-05
71 1 11.1324 9.25734 10.6106 -2.37491e-05 1.06699e-05 -4.2223e-05 4.96049e-05
72 1 1.03491 7.06983 9.92582 2.40451e-05 -3.71601e-05 -1.81139e-05 4.78242e-05
73 1 0.447023 5.64902 7.75658 -4.22948e-05 3.1239e-05 -7.97868e-06 5.31825e-05
74 1 1.7276 8.87163 4.87825 -3.26952e-05 -5.44069e-05 1.24099e-05 6.46768e-05
75 1 0.65226 6.14933 0.693862 2.75677e-05 -3.57362e-05 1.63694e-05 4.80105e-05
76 1 0.0641683 4.73348 10.1819 -1.9984e-05 -2.73042e-05 -3.19604e-05 4.6544e-05
77 1 2.42514 4.8742 9.27572 -7.31149e-05 -4.96825e-05 -3.08589e-07 8.83981e-05
78 1 2.23611 4.3775 4.67191 1.79564e-05 -1.14267e-05 -1.59373e-05 2.65895e-05
79 1 1.48881 2.56848 9.56876 6.53532e-05 3.7674e-05 -4.28771e-05 8.67688e-05
80 1 0.249506 5.13465 3.1265 1.57279e-05 -6.04901e-06 -3.5111e-05 3.89453e-05
81 1 1.30592 2.04314 4.95024 -1.24599e-05 -4.13163e-05 8.97585e-06 4.40778e-05
82 1 0.73964 0.609646 2.84172 4.01296e-05 -6.00775e-06 -8.63863e-06 4.14861e-05
83 1 1.098 1.58697 0.403231 -4.30134e-05 -3.16029e-05 1.16284e-05 5.46271e-05
84 1 0.562232 0.268117 9.93041 -3.02471e-05 -2.70789e-05 5.78992e-06 4.10082e-05
85 1 3.30168 1.32132 6.5154 3.39651e-05 1.88588e-05 -1.54295e-05 4.18014e-05
86 1 2.61309 5.29052 2.2321 -3.46336e-05 1.0365e-05 5.75917e-05 6.79979e-05
87 1 1.67422 2.96564 2.51633 5.33266e-05 1.45424e-05 2.34969e-05 6.00609e-05
88 1 3.85029 2.71927 8.67914 -3.59876e-05 -6.33019e-05 3.11237e-05 7.91892e-05
89 1 2.04042 3.9123 0.0785466 1.25712e-05 3.0147e-06 -3.1848e-05 3.43718e-05
90 1 4.41025 4.09356 10.8539 -9.67052e-06 -3.71052e-05 2.06944e-05 4.35726e-05
91 1 6.24437 2.92515 7.78153 3.28415e-05 -1.54935e-05 2.70751e-06 3.64135e-05
92 1 4.61061 4.5729 3.81543 -3.09869e-05 -6.94929e-06 2.52818e-05 4.05913e-05
93 1 4.98274 5.51779 1.40538 9.12521e-05 -3.91356e-05 2.94292e-05 0.00010356
94 1 5.63777 1.54403 5.5615 4.77181e-06 3.29282e-06 1.75582e-05 1.84906e-05
95 1 6.61176 3.87988 5.37889 -1.49331e-05 -2.33185e-05 3.39917e-05 4.38427e-05
96 1 6.04525 2.45627 3.15519 -4.16379e-06 4.44136e-06 2.41226e-05 2.4879e-05
97 1 6.42911 3.41728 0.759619 3.29014e-05 4.04797e-05 7.02866e-07 5.2169e-05
98 1 5.83122 1.96798 10.2069 -1.4003e-05 -5.23839e-06 -2.16649e-06 1.51069e-05
99 1 7.40677 0.179974 4.24312 -7.33754e-05 -1.19822e-05 -1.58636e-05 7.60209e-05
100 1 5.22544 0.584012 8.04649 3.61086e-06 1.18333e-05 -4.42103e-06 1.31381e-05
101 1 7.83709 1.16237 1.88664 5.18144e-05 4.12403e-05 -7.90495e-06 6.66932e-05
102 1 4.23552 3.65417 6.24294 1.2225e-05 -5.34079e-05 -3.63596e-05 6.57562e-05
103 1 1.95546 9.37979 9.42989 2.54959e-06 -3.44619e-06 2.27662e-06 4.85383e-06
104 1 2.40885 10.3055 6.89242 -5.99375e-05 -2.93393e-06 8.01804e-06 6.05426e-05
105 1 4.06421 9.06222 3.90032 -1.88839e-05 4.96357e-06 1.78058e-06 1.96064e-05
106 1 4.45618 10.0041 1.37814 1.52674e-05 8.57837e-06 -3.99117e-05 4.35847e-05
107 1 3.36373 7.18429 8.93344 -2.74533e-05 5.03026e-05 3.34025e-05 6.63308e-05
108 1 2.80737 5.79582 6.82086 -8.14091e-06 7.67721e-06 8.77727e-06 1.42216e-05
109 1 3.73704 8.14392 6.41141 6.31183e-05 1.66234e-06 1.90195e-05 6.59425e-05
110 1 1.20687 7.42915 2.8577 8.63753e-06 1.2314e-05 -1.53081e-05 2.14612e-05
111 1 3.78023 8.57034 11.0505 -4.8967e-05 -8.93776e-06 -1.81705e-05 5.29889e-05
112 1 2.98444 6.21278 11.4237 1.31187e-06 -3.93669e-06 -4.96925e-06 6.47394e-06
113 1 4.80176 5.04718 8.43373 6.17312e-05 4.43022e-06 2.00863e-06 6.19226e-05
114 1 1.87008 3.47961 7.11225 -3.73782e-05 -5.19065e-05 1.07412e-05 6.48598e-05
115 1 3.16809 6.70532 4.3612 -6.03162e-06 -2.69765e-05 1.17534e-05 3.00376e-05
116 1 1.41906 7.95752 7.38976 -6.28662e-05 2.18245e-05 -2.00747e-06 6.6577e-05
117 1 9.79877 0.515426 3.3975 2.86147e-05 3.47545e-05 -5.57598e-05 7.16647e-05
