ITEM: TIMESTEP
0
ITEM: NUMBER OF ATOMS
142
ITEM: BOX BOUNDS pp pp pp
0.0000000000000000e+00 1.1400361000000000e+01
0.0000000000000000e+00 1.2098903999999999e+01
0.0000000000000000e+00 1.2816801000000000e+01
ITEM: ATOMS id type x y z fx fy fz v_fmag
1 1 0.23012 11.5285 4.3082 -4.52055e-05 -2.15187e-05 -9.40083e-06 5.09408e-05
2 1 8.27559 1.46008 2.23778 -1.20452e-05 1.1315e-05 -1.02687e-05 1.94567e-05
3 1 9.75549 2.79062 0.857776 -3.71455e-05 -5.00263e-05 6.00148e-06 6.25974e-05
4 1 10.3133 0.762001 6.13741 -5.38898e-05 -7.69836e-06 -2.4199e-05 5.95732e-05
5 1 9.58317 0.170359 0.444864 1.0974e-05 -4.35307e-05 4.34317e-06 4.51023e-05
6 1 8.40171 11.2895 11.0624 1.48164e-05 -2.39555e-05 -5.02032e-06 2.86111e-05
7 1 6.29542 11.864 7.16107 -1.28055e-05 -8.41166e-06 -2.33097e-05 2.7894e-05
8 1 4.21707 0.42247 3.26578 -3.82534e-05 3.52973e-05 3.18457e-05 6.10194e-05
9 1 9.33132 9.62886 12.7767 1.82716e-06 -1.41468e-05 -9.52974e-06 1.71548e-05
10 1 5.65807 8.92959 10.3117 -4.54361e-06 -8.03608e-06 3.63253e-06 9.9206e-06
11 1 7.20891 10.2528 8.92194 4.56618e-06 -9.08074e-06 8.16831e-06 1.30396e-05
12 1 6.07319 9.26693 6.73597 3.31703e-05 -1.72015e-05 6.89147e-06 3.79955e-05
13 1 7.64957 10.5941 5.30393 1.51035e-05 -4.01936e-05 6.80908e-06 4.34742e-05
14 1 6.48837 9.58626 3.1566 1.22868e-05 -1.00948e-05 -8.1761e-06 1.78807e-05
15 1 5.53742 11.2275 1.44905 4.95039e-05 -5.55452e-06 -1.06681e-06 4.9826e-05
16 1 6.61829 7.29618 12.0076 6.92745e-06 1.74084e-05 2.09701e-05 2.8121e-05
17 1 5.42037 6.30541 9.86038 -3.99861e-06 3.08111e-05 -2.09109e-05 3.74511e-05
18 1 6.98914 7.63748 8.49127 -1.02007e-06 -1.94617e-07 -1.05034e-05 1.05546e-05
19 1 6.93502 2.75375 4.04391 -3.9859e-08 2.13509e-05 1.37328e-05 2.53861e-05
20 1 6.52992 2.37316 7.59742 1.20786e-06 -3.16368e-05 2.71781e-07 3.1661e-05
21 1 7.68154 3.369 9.75625 -3.44319e-05 -5.9674e-06 -7.44202e-06 3.57288e-05
22 1 8.62007 1.76266 11.4936 9.63556e-06 5.152e-06 -2.69574e-05 2.90876e-05
23 1 7.5654 5.67718 0.904091 6.09844e-06 -2.60367e-05 -1.00353e-05 2.85624e-05
24 1 6.00584 4.37015 2.31211 -2.3483e-05 -2.77936e-05 1.35628e-05 3.88315e-05
25 1 9.39406 2.42444 4.38568 1.16097e-05 2.65852e-05 -3.10944e-06 2.91758e-05
26 1 7.16766 5.37838 4.48561 5.79514e-06 -3.95004e-06 2.10561e-06 7.32257e-06
27 1 6.75012 5.00993 8.04324 2.55716e-05 2.77851e-05 4.27953e-06 3.80031e-05
28 1 6.37815 4.67765 11.5691 -2.02245e-05 -1.45019e-05 1.42888e-05 2.86968e-05
29 1 7.8076 8.28946 1.32979 -2.27254e-05 7.41685e-06 9.98067e-06 2.5905e-05
30 1 6.25174 6.97163 2.73285 -1.48378e-05 -1.68613e-05 1.29403e-05 2.59213e-05
31 1 7.41087 7.9854 4.89794 -1.95123e-05 2.72794e-05 2.15887e-05 3.98869e-05
32 1 5.84258 6.66425 6.31396 -3.50251e-05 -1.28956e-05 -1.43201e-06 3.73511e-05
33 1 5.60392 4.03373 5.87889 1.5284e-05 2.2671e-05 -2.88639e-06 2.74938e-05
34 1 9.02714 2.07339 7.94301 4.60768e-06 -5.50623e-05 -2.55697e-05 6.08842e-05
35 1 10.1597 3.063 10.0966 3.77267e-05 -2.3931e-05 -8.9811e-06 4.55703e-05
36 1 11.0657 1.4282 11.8482 2.18441e-05 -1.5421e-06 -1.25895e-05 2.52594e-05
37 1 9.68451 9.95971 9.27153 -1.65874e-05 -2.47566e-05 -8.83805e-06 3.10828e-05
38 1 8.14809 8.63244 10.6407 1.87391e-05 -3.12845e-05 -1.10832e-05 3.81144e-05
39 1 6.71907 0.115124 3.598 1.04692e-05 -2.66603e-05 -1.44063e-05 3.20611e-05
40 1 8.75652 11.5488 7.51074 2.36054e-05 -2.79505e-05 1.39541e-05 3.91556e-05
41 1 10.8317 10.9385 11.422 1.76978e-07 -8.4533e-06 -3.34617e-05 3.45134e-05
42 1 0.434445 2.05288 4.71068 2.06707e-05 -9.96059e-06 -3.82473e-05 4.46021e-05
43 1 8.53379 8.95642 7.09727 -2.68437e-05 -1.04332e-05 9.73249e-06 3.03999e-05
44 1 10.9177 3.76073 3.02337 3.27611e-06 -1.98607e-05 1.93163e-05 2.7898e-05
45 1 11.1664 6.33784 3.43988 -1.85941e-05 7.30176e-07 6.0464e-05 6.32627e-05
46 1 10.7742 6.01062 7.01958 -7.51381e-06 -1.25291e-05 -1.21257e-05 1.8986e-05
47 1 10.4641 5.73553 10.4835 -3.18257e-05 1.86432e-05 3.94848e-05 5.40323e-05
48 1 10.5826 10.6391 2.03003 -1.79412e-05 -9.87898e-06 -8.91476e-06 2.23373e-05
49 1 10.9948 8.61344 7.44563 3.88709e-05 -8.55278e-06 2.58439e-05 4.74553e-05
50 1 10.61 8.31183 10.9915 -1.37807e-05 -8.7031e-05 -1.20583e-05 8.89366e-05
51 1 10.5317 3.37299 6.56809 3.78738e-06 1.38898e-05 4.64307e-05 4.86115e-05
52 1 5.77517 1.75033 1.89303 1.7956e-05 2.36697e-05 1.9143e-06 2.97714e-05
53 1 10.0803 10.2498 5.68433 -4.21598e-06 1.40496e-05 -2.54148e-05 2.93441e-05
54 1 8.03393 10.9151 1.7765 -3.70586e-05 -5.832e-06 -8.90398e-06 3.85569e-05
55 1 10.0866 5.44196 1.20379 -3.44169e-05 -1.31641e-05 -1.33573e-05 3.91948e-05
56 1 8.4866 4.1175 2.65297 1.32927e-05 -3.36542e-05 6.68929e-06 3.67974e-05
57 1 9.62003 5.05217 4.85447 7.77899e-06 7.67838e-06 4.7847e-06 1.19316e-05
58 1 8.07155 3.71257 6.21857 -3.28757e-05 1.05907e-05 1.84864e-05 3.91756e-05
59 1 9.21848 4.69941 8.38382 -1.22518e-05 5.76708e-06 -1.91778e-05 2.34767e-05
60 1 8.86955 4.38431 11.884 2.93646e-06 -3.18102e-05 -2.05207e-07 3.19461e-05
61 1 8.98751 9.30913 3.46221 -1.78998e-05 -2.30822e-05 2.08956e-06 2.92841e-05
62 1 11.3079 4.00892 12.26 4.64086e-05 1.08591e-05 -3.08954e-05 5.67997e-05
63 1 8.74763 6.70879 3.05354 2.76878e-05 4.68064e-06 2.67409e-05 3.87762e-05
64 1 9.85335 7.655 5.26554 2.45583e-05 1.87232e-05 1.31261e-05 3.35554e-05
65 1 8.30563 6.34981 6.67193 7.89136e-06 -3.96789e-05 3.3314e-05 5.24072e-05
66 1 9.49788 7.33233 8.83923 -1.46923e-05 -4.25918e-05 -1.64161e-05 4.79522e-05
67 1 7.93154 6.00553 10.1901 2.63947e-05 -3.73216e-05 7.29141e-06 4.62898e-05
68 1 9.11842 6.97676 12.3289 2.46049e-05 -7.87433e-06 -9.71579e-06 2.76007e-05
69 1 10.3434 8.04668 1.59505 -9.87525e-07 1.06051e-05 -3.2121e-05 3.38408e-05
70 1 7.30933 3.07352 0.489394 -1.11884e-05 6.99143e-06 1.8304e-05 2.25632e-05
71 1 9.99123 0.506051 9.61621 -1.89381e-05 -1.86333e-05 -5.75668e-06 2.71843e-05
72 1 7.85707 1.0852 5.76133 1.64572e-05 1.28523e-05 -1.59617e-05 2.6283e-05
73 1 1.82383 5.64108 7.35591 -4.0207e-05 2.90613e-05 -1.49655e-05 5.18183e-05
74 1 1.44222 5.28715 10.8936 6.30112e-06 -1.3633e-06 2.7969e-05 2.87024e-05
75 1 1.55136 10.2052 2.47285 -1.95621e-05 3.11289e-05 -6.19391e-06 3.72833e-05
76 1 1.31197 7.59202 2.03125 6.10008e-05 5.32799e-05 -2.61431e-05 8.51076e-05
77 1 2.46086 8.57573 4.19964 6.58998e-06 7.24198e-06 -2.73071e-05 2.90095e-05
78 1 0.910881 7.28732 5.5978 1.91721e-05 1.13814e-05 -6.65995e-06 2.32693e-05
79 1 0.67615 4.67235 5.19568 -2.25929e-05 -2.54869e-05 6.41861e-06 3.46586e-05
80 1 1.99133 8.20396 7.83568 -2.08612e-06 2.82988e-05 -2.10561e-05 3.53346e-05
81 1 2.82468 8.89176 0.672842 -3.95857e-05 -2.04117e-05 2.47941e-05 5.09746e-05
82 1 1.71194 0.726249 2.91598 4.31951e-05 2.76029e-05 -1.36353e-07 5.12616e-05
83 1 11.4001 8.93649 3.85566 1.78882e-05 -1.1827e-05 1.85848e-06 2.15249e-05
84 1 2.68672 11.1887 4.64339 1.50671e-06 4.69114e-05 2.40109e-05 5.27207e-05
85 1 1.14413 9.87601 6.03425 1.62798e-05 -6.75901e-06 1.50069e-06 1.76909e-05
86 1 2.29383 10.8375 8.20366 1.15336e-05 3.70474e-05 -2.52312e-06 3.88832e-05
87 1 1.57283 7.86942 11.4352 -1.29776e-06 3.83265e-05 2.87759e-05 4.79443e-05
88 1 0.743649 9.57846 9.618 4.96747e-05 -5.23357e-06 4.50528e-06 5.01524e-05
89 1 2.22165 5.96517 3.78561 3.62345e-05 4.69808e-07 1.09854e-05 3.78661e-05
90 1 2.57153 6.25199 0.223471 -1.06067e-05 1.2827e-05 4.14299e-06 1.71522e-05
91 1 2.47676 1.36025 8.62585 -6.94911e-07 9.31683e-06 -5.52657e-05 5.60498e-05
92 1 0.29359 4.33952 8.72125 -1.59402e-05 1.32421e-05 4.15337e-06 2.11352e-05
93 1 1.20634 2.66944 10.4398 -2.34292e-05 4.75934e-06 -3.09496e-05 3.91083e-05
94 1 1.79509 10.4802 11.8744 3.48003e-05 2.34898e-05 -8.44794e-06 4.28276e-05
95 1 0.981061 0.0682254 10.0175 -5.86133e-05 -8.43667e-06 -7.20788e-06 5.96544e-05
96 1 2.04325 0.984722 12.2713 -1.2681e-05 6.11979e-05 -1.4132e-05 6.40758e-05
97 1 1.0674 4.97449 1.60317 6.38152e-06 1.76811e-05 3.6925e-06 1.91567e-05
98 1 2.89759 1.71762 5.07849 -3.6339e-05 6.47184e-06 2.96359e-05 4.7336e-05
99 1 2.33149 3.60103 12.6354 -2.92419e-06 2.69388e-05 -2.10859e-05 3.43346e-05
100 1 0.732457 2.31334 1.27624 -6.79005e-06 1.88192e-05 7.2445e-06 2.12779e-05
101 1 1.98617 3.37375 3.36036 -2.59389e-05 7.28251e-06 -1.7119e-05 3.19206e-05
102 1 1.52755 2.95338 6.9532 1.53428e-05 1.30692e-05 1.94973e-05 2.8042e-05
103 1 2.75748 3.98936 9.07439 -2.76371e-05 2.2815e-05 -2.80895e-06 3.59475e-05
104 1 3.6367 2.31899 10.8246 -3.57467e-05 1.46115e-05 -3.46231e-05 5.18659e-05
105 1 4.95508 1.04889 8.9928 -1.77678e-05 2.43066e-05 1.53638e-05 3.38017e-05
106 1 9.25078 11.9434 3.87359 2.93871e-06 -3.52203e-05 8.25146e-06 3.62932e-05
107 1 4.34707 10.2337 12.1288 1.30425e-05 6.51897e-06 -2.12407e-05 2.57637e-05
108 1 3.39297 11.8209 10.4239 6.17531e-06 -4.55245e-06 5.30149e-06 9.32551e-06
109 1 3.36875 6.95747 5.9639 3.31793e-05 -2.64697e-06 -5.44707e-05 6.38352e-05
110 1 4.49538 7.94912 8.15191 2.51821e-05 -1.47689e-05 -1.29607e-05 3.19412e-05
111 1 2.91052 6.63731 9.53813 1.63032e-05 4.61667e-05 8.42881e-06 4.9681e-05
112 1 4.10902 7.59056 11.6793 1.16544e-05 2.19507e-06 1.06506e-06 1.1907e-05
113 1 3.04076 11.5377 1.12385 -1.40868e-05 8.60172e-06 1.66592e-05 2.34511e-05
114 1 4.01037 9.8918 2.82181 7.49402e-06 -1.93021e-05 3.85352e-05 4.37458e-05
115 1 4.93119 8.26689 4.55793 2.08244e-06 1.34074e-05 -2.36934e-05 2.73034e-05
116 1 5.15864 10.8765 4.98781 4.20054e-05 -2.12714e-06 4.98581e-05 6.52289e-05
117 1 4.73623 10.5454 8.58007 -3.84305e-06 2.04618e-05 -2.42719e-06 2.09606e-05
118 1 3.16431 9.23093 10.0167 -2.05484e-05 3.4464e-05 1.35335e-05 4.23457e-05
119 1 6.85372 9.93891 12.4448 -2.46512e-05 -2.35239e-05 -1.35305e-05 3.66624e-05
120 1 3.83065 0.0704368 6.80818 2.6624e-05 1.11073e-05 -1.83965e-05 3.42147e-05
121 1 5.89901 11.5563 10.737 1.87198e-05 2.54419e-05 -6.03768e-06 3.21586e-05
122 1 7.08909 0.455804 0.0819794 3.55798e-07 -4.26166e-05 1.16004e-05 4.41686e-05
123 1 3.59004 9.53801 6.39687 1.81509e-05 9.56054e-06 1.23017e-05 2.39205e-05
124 1 1.36463 0.395621 6.46292 1.70277e-05 -6.88438e-06 -2.67222e-05 3.24255e-05
125 1 3.7748 7.26847 2.3882 -1.95693e-05 1.95882e-05 5.51217e-05 6.16851e-05
126 1 3.88889 4.95501 11.24 -8.65542e-06 -1.20288e-05 1.28232e-05 1.9597e-05
127 1 4.58154 0.751211 12.5595 7.13907e-06 4.9311e-06 4.0201e-06 9.5626e-06
128 1 5.38219 1.40532 5.42236 -1.83302e-05 -1.34254e-05 4.22637e-06 2.31106e-05
129 1 7.46078 0.764621 9.32835 -3.18971e-05 -1.67972e-05 2.86971e-05 4.60771e-05
130 1 4.82733 3.35654 0.152875 -8.65114e-06 2.89378e-05 -1.52617e-05 3.38402e-05
131 1 3.27551 2.05387 1.56178 -1.15871e-05 1.55807e-05 5.72675e-05 6.04697e-05
132 1 4.45515 3.04956 3.71087 2.22985e-05 -7.13512e-06 -2.60133e-06 2.35563e-05
133 1 5.3133 8.59667 1.00108 6.75318e-06 -1.09043e-05 -3.38605e-05 3.62083e-05
134 1 4.04489 2.68606 7.25243 3.2433e-06 1.00817e-05 1.79693e-05 2.0858e-05
135 1 6.13469 2.05438 11.1552 7.22466e-06 4.06388e-06 -2.71733e-05 2.84095e-05
136 1 5.06953 5.97587 0.567608 2.65038e-06 -4.78314e-06 -1.35803e-05 1.46399e-05
137 1 3.53264 4.66358 1.96193 1.64272e-05 8.61387e-06 -1.74569e-05 2.54714e-05
138 1 4.68498 5.65326 4.14652 -3.44813e-05 3.94119e-06 -1.26774e-06 3.47289e-05
139 1 3.1164 4.32026 5.55706 2.86674e-05 4.07814e-05 -7.62257e-06 5.04286e-05
140 1 4.28704 5.33556 7.70568 2.23336e-05 3.08669e-05 4.90729e-06 3.84141e-05
141 1 5.20451 3.66162 9.42295 1.4139e-06 -9.54545e-06 3.25145e-05 3.39162e-05
142 1 11.2342 11.1997 7.84897 -1.55669e-05 -9.09671e-06 6.3678e-06 1.91214e-05
