ITEM: TIMESTEP
0
ITEM: NUMBER OF ATOMS
131
ITEM: BOX BOUNDS pp pp pp
0.0000000000000000e+00 1.1464695000000001e+01
0.0000000000000000e+00 1.1317634999999999e+01
0.0000000000000000e+00 1.1648808000000001e+01
ITEM: ATOMS id type x y z fx fy fz v_fmag
1 1 1.34385 4.81602 1.04146 -3.7847e-06 1.0208e-05 -1.69346e-05 2.01323e-05
2 1 0.721701 4.05474 5.9898 3.2404e-05 4.48633e-05 -2.19401e-05 5.95324e-05
3 1 10.6319 3.78211 3.76292 -3.1998e-05 2.32526e-05 3.77e-05 5.46429e-05
4 1 10.3569 4.38894 1.18307 -8.07329e-05 -7.75019e-06 -2.87782e-05 8.60584e-05
5 1 8.95872 0.810047 9.61315 1.27702e-05 6.21633e-05 3.52298e-06 6.35591e-05
6 1 9.69499 1.5981 4.63434 1.57859e-05 -1.73118e-05 -2.734e-05 3.60052e-05
7 1 9.51182 2.23728 2.07353 -5.61092e-06 -6.66729e-05 -1.91761e-05 6.96023e-05
8 1 6.2803 10.3195 5.74506 -2.38534e-05 1.0884e-05 1.15209e-05 2.86388e-05
9 1 6.06855 11.0114 3.11697 -4.84293e-06 -5.66351e-05 -1.67152e-05 5.92485e-05
10 1 5.41418 9.34751 10.4005 9.42621e-05 0.00010039 0.00010855 0.000175347
11 1 7.82316 10.6033 7.88047 -1.15071e-05 3.8528e-06 1.12069e-05 1.65182e-05
12 1 7.81568 8.54919 6.37938 1.95559e-05 -2.58923e-05 1.2242e-05 3.46801e-05
13 1 7.53337 9.23564 3.87507 -4.76495e-05 -4.69871e-05 -1.88842e-05 6.95332e-05
14 1 5.65084 8.91286 1.82714 2.27851e-05 9.86496e-05 -0.000114602 0.00015292
15 1 6.64691 10.3435 0.376294 0.000137833 -0.000238961 2.23781e-05 0.000276769
16 1 5.99529 6.3369 9.79015 1.56586e-05 -2.12566e-05 1.86498e-05 3.23242e-05
17 1 6.90335 8.40847 8.70997 1.42044e-05 6.35266e-05 9.03288e-05 0.00011134
18 1 6.85889 6.39991 7.34447 -4.94478e-05 2.69929e-05 3.28657e-05 6.52216e-05
19 1 9.10762 7.50863 4.51272 -5.84242e-05 1.38729e-05 1.07799e-05 6.10086e-05
20 1 7.40719 7.22295 2.32662 1.6826e-05 2.91516e-05 2.73866e-05 4.3393e-05
21 1 7.11822 7.89039 11.4759 4.33607e-06 2.71336e-05 -8.74322e-06 2.88354e-05
22 1 5.14531 4.12056 10.6605 -1.20648e-05 -1.38242e-05 -3.365e-05 3.83274e-05
23 1 8.43839 4.72906 8.06179 2.22217e-05 -2.15635e-05 -2.46435e-05 3.95738e-05
24 1 7.21895 3.2252 6.39825 -4.4289e-05 5.91785e-05 -1.85569e-05 7.62101e-05
25 1 8.17408 5.4067 5.49258 -3.57175e-06 -4.30519e-05 2.8112e-05 5.15414e-05
26 1 6.55722 5.00659 3.19692 -4.78376e-05 2.37484e-05 4.20799e-05 6.79937e-05
27 1 8.73552 6.11757 0.468495 4.66506e-05 -1.08538e-05 2.23324e-05 5.28471e-05
28 1 4.1986 1.97542 11.4279 7.6682e-05 -4.03618e-05 2.97887e-05 9.16328e-05
29 1 7.48981 2.53394 8.82783 1.98851e-05 -3.25664e-05 8.46768e-06 3.90856e-05
30 1 6.27224 1.02399 7.24205 5.28545e-07 -4.08029e-05 3.55358e-05 5.41106e-05
31 1 8.7805 1.44638 7.00161 3.55111e-05 -1.74914e-05 2.64287e-05 4.75969e-05
32 1 8.20716 3.42986 4.10775 -1.94621e-05 2.57659e-05 -1.76294e-05 3.67893e-05
33 1 9.94116 2.9692 8.7361 3.05014e-06 -1.98165e-05 -1.77757e-05 2.6795e-05
34 1 11.2087 6.52748 0.29694 -3.77682e-06 5.70809e-05 -2.47963e-05 6.23486e-05
35 1 10.5099 10.4033 10.3209 9.04162e-05 1.51059e-05 -2.81868e-05 9.5905e-05
36 1 10.6352 9.96648 1.18624 2.05304e-05 -1.91881e-05 6.82739e-06 2.89187e-05
37 1 10.9328 7.13364 9.39932 5.1998e-05 -1.56299e-05 -9.23492e-07 5.43041e-05
38 1 0.366121 7.28876 6.9974 9.34931e-06 5.1304e-06 3.00416e-05 3.18783e-05
39 1 10.0809 4.93833 10.2851 3.55957e-05 6.7202e-06 -5.26013e-06 3.66044e-05
40 1 0.948336 3.40516 8.60685 -1.35566e-05 8.77738e-06 -9.88193e-06 1.89335e-05
41 1 0.0328622 5.94826 2.87234 5.73598e-06 1.04681e-05 1.25665e-05 1.7332e-05
42 1 9.32033 2.72032 11.1855 6.264e-05 -2.55394e-05 1.98299e-05 7.04929e-05
43 1 11.2501 1.88864 6.87312 -4.72398e-05 -4.66889e-05 -2.67489e-05 7.16028e-05
44 1 0.48771 2.65408 1.90758 -1.27062e-05 -1.24595e-05 5.63004e-06 1.8665e-05
45 1 8.76813 10.7298 5.51946 3.17081e-06 1.62584e-06 -2.89068e-05 2.91256e-05
46 1 8.54634 0.0743893 2.96163 -2.99384e-06 1.8137e-05 -6.17728e-05 6.445e-05
47 1 8.12177 9.88007 10.287 -2.15588e-05 4.16891e-06 2.25689e-05 3.14884e-05
48 1 10.3082 11.0363 7.75018 7.03172e-06 2.97494e-06 -5.81003e-05 5.85998e-05
49 1 10.3013 9.00294 6.21954 -1.13345e-05 1.54139e-05 8.88902e-06 2.10968e-05
50 1 10.0732 9.6531 3.64779 -1.85854e-05 3.54583e-05 -3.23647e-05 5.14799e-05
51 1 8.35383 9.36812 1.55918 -3.60371e-05 -1.17252e-05 -1.80212e-05 4.19633e-05
52 1 8.5518 0.491041 0.46411 4.93496e-05 1.43543e-05 -4.64442e-06 5.16042e-05
53 1 8.47361 6.75097 9.58304 1.18849e-05 -3.02578e-05 2.91404e-05 4.36571e-05
54 1 9.42024 8.84453 8.55066 4.31849e-05 -2.0719e-05 -3.09278e-05 5.70153e-05
55 1 9.35868 6.84812 7.15099 -1.42552e-06 3.30395e-05 8.35918e-05 8.98956e-05
56 1 0.139517 7.93835 4.38038 2.76239e-05 -2.3127e-05 -4.50948e-05 5.7719e-05
57 1 9.91196 7.64707 2.13621 7.60859e-06 -4.8309e-05 9.35661e-07 4.89135e-05
58 1 9.61305 8.26212 11.2651 4.97589e-05 -1.58361e-05 -5.44839e-06 5.25015e-05
59 1 7.63663 4.57566 10.4219 2.71816e-05 6.87668e-05 2.94816e-05 7.96045e-05
60 1 10.9048 5.13559 7.87573 2.77387e-05 -2.31973e-05 4.86201e-06 3.64855e-05
61 1 9.71546 3.63401 6.18 7.78591e-06 -3.30106e-07 -2.53857e-05 2.65549e-05
62 1 10.6431 5.7895 5.26924 -1.3577e-05 -3.13608e-05 -3.81333e-05 5.12053e-05
63 1 9.01895 5.495 3.02939 -3.84619e-06 4.08218e-05 -1.23425e-05 4.28199e-05
64 1 6.90165 2.43064 11.16 -7.87441e-05 -8.96978e-05 0.000154864 0.000195523
65 1 11.0454 0.496216 2.79858 -4.48268e-05 1.0608e-05 -2.29405e-05 5.1461e-05
66 1 7.13833 1.99587 2.58651 -2.98876e-05 -1.98087e-05 1.38918e-05 3.8453e-05
67 1 6.484 0.332087 9.87014 3.01853e-06 -7.40939e-06 -1.30455e-05 1.53035e-05
68 1 0.600106 8.68942 11.0796 2.91129e-05 -4.71995e-05 -1.53681e-05 5.75459e-05
69 1 2.85753 9.74542 8.35284 3.97324e-05 -1.15338e-05 7.99187e-06 4.21374e-05
70 1 2.83706 7.70948 6.80714 -3.39641e-06 -3.80976e-05 6.04361e-05 7.15226e-05
71 1 2.61137 8.37431 4.2511 -3.56656e-06 1.26735e-05 -3.30187e-05 3.55468e-05
72 1 0.827014 8.17664 1.94905 -8.28711e-05 -3.76905e-05 -3.64431e-05 9.80627e-05
73 1 1.5071 10.8473 10.1886 3.41154e-05 1.18102e-05 1.08554e-06 3.61182e-05
74 1 1.05493 5.39528 10.1149 3.18681e-05 -6.97896e-05 -1.23145e-05 7.77034e-05
75 1 1.92059 7.5614 9.22424 1.33697e-05 3.59926e-05 -7.9752e-06 3.9215e-05
76 1 1.90946 5.55399 7.71794 3.81042e-05 1.9444e-05 -1.18085e-05 4.43784e-05
77 1 4.11413 6.61442 4.92533 3.4245e-05 -8.62963e-06 1.93031e-05 4.02467e-05
78 1 2.47157 6.40519 2.70207 2.81798e-05 -5.25678e-06 -1.78699e-05 3.37797e-05
79 1 2.19563 6.95457 0.155321 -2.85062e-05 1.46732e-05 -3.16007e-05 4.50168e-05
80 1 0.260785 3.16689 11.0382 9.34064e-06 9.61393e-06 -2.74015e-05 3.05044e-05
81 1 3.44494 3.83486 8.47443 -3.64309e-06 6.03051e-06 -2.51413e-05 2.61099e-05
82 1 2.25126 2.34058 6.76764 -2.42359e-05 -1.85597e-05 5.02429e-05 5.87893e-05
83 1 3.19383 4.49536 5.83611 -1.39271e-05 2.63246e-06 2.72828e-05 3.07448e-05
84 1 1.61976 4.20988 3.58787 -6.1195e-05 -3.26991e-05 7.90988e-06 6.98329e-05
85 1 3.81698 5.22591 0.869834 3.7822e-06 -6.33087e-06 8.23994e-06 1.10581e-05
86 1 11.4469 1.24719 9.46367 2.21126e-05 -1.51641e-05 -2.80991e-05 3.88391e-05
87 1 2.47934 1.69038 9.3394 -4.51323e-05 1.17173e-05 -8.90273e-07 4.6637e-05
88 1 2.24434 0.307179 5.23704 1.90208e-05 -2.91801e-05 -1.82868e-05 3.93405e-05
89 1 0.691551 2.03561 4.49669 -4.89591e-05 -7.40293e-06 -3.83106e-05 6.26059e-05
90 1 2.04264 0.940221 2.6663 -2.98677e-05 -2.43478e-05 3.22398e-05 5.02424e-05
91 1 2.93945 3.08137 1.72206 -4.77866e-05 -8.0069e-07 1.2988e-05 4.95266e-05
92 1 1.31933 0.162009 7.61508 2.90935e-05 -4.90219e-06 -1.46626e-05 3.29462e-05
93 1 1.10561 10.0963 3.52357 1.34061e-05 -9.58344e-06 4.25475e-06 1.70196e-05
94 1 10.992 0.922102 0.294151 -2.7194e-06 2.09452e-05 4.67205e-05 5.12728e-05
95 1 0.396276 9.30791 8.49051 2.36294e-05 -1.14568e-05 1.5333e-05 3.0409e-05
96 1 1.64775 6.20791 5.11146 3.33962e-05 3.39921e-05 2.13214e-05 5.22051e-05
97 1 1.56039 10.4214 1.04423 3.99272e-05 6.83052e-06 2.36681e-06 4.05764e-05
98 1 7.90351 3.93852 1.30626 -1.82409e-05 4.21768e-05 -6.2204e-06 4.63715e-05
99 1 1.3024 9.45489 6.11411 4.09614e-05 6.07094e-06 -1.72428e-05 4.48554e-05
100 1 4.72937 0.740143 5.10667 -4.66951e-06 2.16062e-05 -8.40404e-06 2.36487e-05
101 1 7.22249 1.17167 4.9168 -3.70359e-05 2.54282e-06 -7.21484e-05 8.11388e-05
102 1 5.90551 0.999947 0.961932 -0.000152511 0.000327257 -4.3909e-05 0.000363709
103 1 3.77203 9.89712 5.98556 -1.08419e-05 3.54458e-05 -1.15157e-05 3.88145e-05
104 1 3.59381 10.5334 3.37404 -0.000103189 -4.5278e-05 2.35887e-05 0.000115128
105 1 3.04071 9.10621 10.9136 -1.47318e-05 -1.20952e-05 1.8705e-05 2.67057e-05
106 1 5.33004 10.1718 8.07029 6.01191e-05 2.06204e-05 4.95332e-05 8.05794e-05
107 1 5.3336 8.11828 6.58884 1.64881e-06 -5.0958e-05 2.47059e-05 5.66553e-05
108 1 5.06273 8.80956 4.15931 -6.19237e-06 -2.83455e-05 -4.27152e-05 5.16372e-05
109 1 3.23215 8.62319 1.80167 2.10193e-06 -1.33665e-06 5.23619e-06 5.79848e-06
110 1 4.0006 10.8525 0.87426 -5.89346e-05 3.39358e-06 -2.05395e-05 6.25034e-05
111 1 3.53354 5.84851 9.95775 6.6013e-05 -5.45551e-05 -5.38641e-06 8.58079e-05
112 1 4.34532 7.91358 8.87928 3.91293e-05 -2.83055e-05 5.43886e-05 7.27353e-05
113 1 4.37846 5.93675 7.49448 -1.96041e-05 1.30919e-06 2.78365e-05 3.4072e-05
114 1 6.60798 7.04433 4.68883 1.40694e-05 3.65659e-05 1.26579e-05 4.11732e-05
115 1 4.91588 6.76782 2.56518 -9.23713e-05 -8.2338e-06 1.48508e-05 9.39191e-05
116 1 4.64901 7.40496 0.0320799 1.22029e-05 -5.3063e-06 -3.71301e-05 3.94425e-05
117 1 2.64052 3.69646 10.8509 -6.81533e-05 2.59147e-05 -2.13928e-05 7.59875e-05
118 1 5.94457 4.29914 8.29826 -3.60579e-05 -1.54087e-05 5.08374e-06 3.95404e-05
119 1 4.73685 2.79432 6.60771 1.92251e-05 -1.72196e-05 -9.01029e-06 2.73368e-05
120 1 5.69365 4.94353 5.64255 -2.87858e-05 4.67729e-05 3.07727e-05 6.29546e-05
121 1 4.07891 4.5925 3.40407 -2.20697e-05 5.4672e-05 3.83599e-05 7.03391e-05
122 1 6.27625 5.67173 0.669148 -7.44713e-06 8.20515e-06 -1.45126e-05 1.82592e-05
123 1 1.91726 1.37703 0.152135 4.84563e-06 2.93497e-05 -2.76149e-05 4.0589e-05
124 1 5.01918 2.10785 9.11207 4.21623e-06 -1.92571e-05 7.6794e-06 2.11562e-05
125 1 3.78441 0.613732 7.46771 3.47046e-05 8.78164e-06 -1.03353e-05 3.72605e-05
126 1 5.64918 2.93497 4.27707 -2.27999e-05 -1.12539e-05 -4.18548e-06 2.57683e-05
127 1 3.13228 2.49896 4.43648 3.72435e-05 -8.43655e-06 -5.9798e-05 7.0951e-05
128 1 5.43429 3.45307 1.5112 2.1968e-05 -7.025e-05 -1.77245e-05 7.57088e-05
129 1 4.00625 11.2691 10.0256 -1.9348e-05 2.97881e-05 1.48495e-05 3.84991e-05
130 1 4.43074 1.46338 2.70015 2.62141e-06 5.10528e-05 7.56325e-07 5.11256e-05
131 1 11.2332 11.1815 5.37215 -3.20972e-05 7.78152e-06 -2.24458e-05 3.99324e-05
