ITEM: TIMESTEP
0
ITEM: NUMBER OF ATOMS
141
ITEM: BOX BOUNDS pp pp pp
0.0000000000000000e+00 1.1396901000000000e+01
0.0000000000000000e+00 1.2680864000000000e+01
0.0000000000000000e+00 1.2228524999999999e+01
ITEM: ATOMS id type x y z fx fy fz v_fmag
1 1 0.587802 2.03837 4.46286 -6.65068e-05 2.60576e-05 -1.44379e-05 7.28739e-05
2 1 9.69245 0.0862863 10.7198 8.71823e-07 -3.83832e-05 9.88004e-06 3.9644e-05
3 1 7.12948 11.4846 7.90553 -1.77235e-05 3.79369e-06 7.22741e-06 1.95129e-05
4 1 8.31937 0.170016 6.15095 -3.18201e-06 1.1686e-05 4.65057e-05 4.80569e-05
5 1 5.83212 11.3342 3.66581 7.06554e-06 9.63542e-06 -1.81887e-06 1.2086e-05
6 1 6.96908 0.0299171 1.84631 1.85612e-05 1.93695e-05 -5.14576e-06 2.73162e-05
7 1 7.78511 9.30836 11.6148 -4.8081e-05 -8.99586e-06 5.26031e-06 4.91974e-05
8 1 9.7649 8.48672 9.72378 2.75808e-08 -3.73231e-06 -1.48636e-05 1.5325e-05
9 1 6.03687 9.00811 7.52721 -3.026e-05 -1.00082e-05 3.3522e-06 3.20479e-05
10 1 7.18527 10.3963 5.61023 -2.26825e-05 2.9503e-05 3.3042e-05 4.97664e-05
11 1 7.37878 9.43895 3.1768 4.47439e-05 -5.09918e-07 -3.51669e-05 5.69121e-05
12 1 8.52228 10.8801 1.24543 -1.54746e-05 1.30477e-05 -1.5645e-05 2.55826e-05
13 1 6.2307 6.53312 11.4308 -2.80065e-05 2.34665e-05 2.00931e-05 4.16986e-05
14 1 7.35067 7.9594 9.53194 2.4972e-05 3.22453e-06 -7.89758e-07 2.51917e-05
15 1 7.54168 6.99743 7.14609 5.25143e-05 -3.93819e-06 -9.23322e-06 5.34651e-05
16 1 8.66584 8.40549 5.24096 9.10015e-05 3.27096e-05 -1.49546e-05 9.78511e-05
17 1 5.79163 6.63474 3.03608 -2.71569e-05 -2.81175e-05 3.62859e-05 5.33363e-05
18 1 6.77102 7.98659 1.20737 -2.4801e-05 2.36492e-05 3.93072e-05 5.21482e-05
19 1 6.86561 1.04884 4.2803 6.55796e-06 -4.58359e-07 -1.01533e-05 1.20957e-05
20 1 8.15598 0.960419 8.81561 6.66535e-06 1.28317e-05 3.73669e-05 4.0067e-05
21 1 6.59578 3.26425 0.570728 -7.64413e-07 4.85919e-05 2.82756e-07 4.85987e-05
22 1 5.45669 1.88748 2.37426 -2.58674e-06 -2.53022e-05 2.62716e-05 3.65662e-05
23 1 7.83193 3.33133 5.02092 2.94789e-06 6.39663e-06 8.47963e-06 1.10232e-05
24 1 6.68939 1.87474 6.92136 2.07313e-05 3.96282e-05 3.34124e-05 5.58262e-05
25 1 9.47793 0.531183 1.95326 -2.32831e-05 2.65396e-05 1.29036e-05 3.75892e-05
26 1 7.87644 3.59542 8.56241 4.12249e-05 1.71232e-06 1.37206e-05 4.34819e-05
27 1 7.5333 5.61425 1.23967 -2.44218e-05 2.19822e-05 2.58883e-05 4.18312e-05
28 1 6.39136 4.19508 3.13199 -2.34585e-05 4.52436e-05 1.29546e-05 5.25843e-05
29 1 7.46987 5.89027 4.84217 -3.34595e-05 3.51332e-05 1.4984e-05 5.07779e-05
30 1 6.39301 4.48275 6.69293 4.10065e-06 -1.90783e-05 6.37991e-06 2.05305e-05
31 1 8.91314 6.00787 9.12882 1.83056e-05 1.74901e-05 -4.47889e-05 5.14495e-05
32 1 7.76795 4.61049 10.9433 2.36807e-06 -5.6012e-06 2.22642e-05 2.30797e-05
33 1 6.74762 2.24257 10.416 -2.6627e-05 1.93808e-05 9.35209e-06 3.42356e-05
34 1 9.43726 1.57098 4.35314 2.19498e-05 -2.43466e-05 2.95394e-05 4.41263e-05
35 1 10.816 1.4812 8.75197 -9.92682e-06 -6.10731e-05 -1.51145e-05 6.36938e-05
36 1 10.5179 2.97091 2.51814 2.19262e-05 -1.98833e-05 -2.52809e-05 3.89259e-05
37 1 9.7882 9.82019 3.38353 -2.48299e-05 1.43293e-05 2.87139e-06 2.88114e-05
38 1 9.64027 10.79 5.77614 7.84255e-05 -1.48852e-06 -3.56956e-05 8.61798e-05
39 1 8.48827 9.39084 7.62524 5.95928e-05 -2.45176e-06 6.96725e-06 6.00487e-05
40 1 0.422516 11.7236 9.56589 -2.22408e-06 -7.24911e-06 4.01686e-06 8.58086e-06
41 1 10.5662 10.3015 11.4623 1.80315e-05 -1.27324e-05 1.66251e-05 2.76341e-05
42 1 8.33235 11.7986 3.77065 3.13882e-05 -7.12466e-06 -3.69963e-05 4.90378e-05
43 1 10.8972 11.2371 1.59986 6.16579e-05 1.8026e-05 -6.88981e-05 9.41997e-05
44 1 9.81375 11.9893 8.00961 1.68548e-05 -2.47394e-05 -4.12373e-06 3.0218e-05
45 1 10.4735 4.07265 8.61213 -1.7088e-05 -1.38737e-06 -1.5225e-05 2.29287e-05
46 1 10.6044 1.95068 0.115218 -0.000114267 7.56535e-05 -1.5553e-07 0.000137041
47 1 0.205634 5.33781 3.20513 2.04501e-05 -3.41203e-05 -5.16829e-06 4.01137e-05
48 1 0.177762 5.50219 6.71566 -9.63166e-06 -2.38709e-05 -1.40713e-05 2.93358e-05
49 1 11.1851 7.83803 2.98705 -2.56061e-05 -9.49467e-06 -1.10146e-05 2.94473e-05
50 1 11.192 7.66629 11.6272 -3.21159e-06 -2.0233e-05 3.56429e-06 2.0794e-05
51 1 8.65402 10.7086 9.7564 -2.49335e-05 -5.54032e-06 2.27959e-05 3.4235e-05
52 1 5.55806 0.891296 12.1721 3.79323e-05 -1.40066e-05 -1.973e-05 4.49924e-05
53 1 8.72316 6.94338 11.5691 3.47924e-07 -1.08096e-06 8.58356e-06 8.65835e-06
54 1 10.0115 7.43126 7.24721 -2.2517e-05 1.18366e-05 -7.30079e-06 2.64655e-05
55 1 7.9904 2.42821 2.47774 9.36964e-07 9.01456e-06 1.30574e-05 1.58945e-05
56 1 10.4693 3.87909 5.03089 -6.43743e-06 -1.62718e-05 -2.01873e-05 2.67159e-05
57 1 9.31503 2.44428 6.89782 1.67192e-05 -5.14083e-06 -1.37064e-05 2.22222e-05
58 1 9.31153 2.68619 10.3973 -1.82108e-05 -2.34397e-05 3.22119e-05 4.38025e-05
59 1 8.14488 1.38396 0.0497036 2.50616e-05 7.14016e-06 3.20096e-05 4.12756e-05
60 1 10.1997 6.0655 1.22686 -7.2154e-06 5.83334e-06 -2.86084e-05 3.00754e-05
61 1 11.3474 6.62575 9.21647 -4.34994e-05 4.35708e-06 -3.43438e-06 4.38518e-05
62 1 8.96303 4.76407 3.15602 -1.23234e-05 4.7822e-05 1.36662e-05 5.12403e-05
63 1 8.99472 5.00394 6.73527 1.3208e-05 8.53386e-06 8.10823e-06 1.76924e-05
64 1 10.3576 5.0048 11.0313 -1.96202e-05 -3.03754e-05 1.98676e-05 4.12594e-05
65 1 9.10046 3.80479 0.648738 3.38164e-05 -4.29477e-05 -9.18692e-06 5.54298e-05
66 1 9.6285 8.65449 1.0893 -4.28976e-06 4.935e-06 -6.42858e-05 6.46175e-05
67 1 8.5815 7.26041 2.93568 -7.5585e-06 4.36039e-05 -1.77721e-05 4.76895e-05
68 1 11.1353 8.83766 5.383 -2.57474e-05 1.01356e-05 -3.76551e-05 4.67286e-05
69 1 10.0811 6.41954 4.8661 8.11938e-06 5.28122e-06 -1.78149e-05 2.02777e-05
70 1 10.9351 9.83366 7.84198 9.61102e-06 -3.5631e-05 -8.07283e-06 3.77771e-05
71 1 7.2355 11.8439 11.4756 -2.64533e-06 1.11925e-05 4.63121e-05 4.77188e-05
72 1 5.6938 12.3594 6.04175 -2.25671e-05 1.43804e-05 1.50284e-05 3.06908e-05
73 1 1.09706 7.98144 7.33948 5.18101e-06 -3.30891e-05 9.14229e-06 3.47176e-05
74 1 2.22154 9.39251 5.48542 5.95435e-05 -7.17233e-06 -3.85145e-05 7.12758e-05
75 1 2.38678 8.40915 3.00851 1.98163e-06 5.23259e-06 2.11638e-05 2.1891e-05
76 1 3.49627 9.82862 1.1227 -2.20728e-05 -1.36876e-05 3.44996e-05 4.31831e-05
77 1 1.31738 5.76852 11.1737 1.96544e-05 -3.33632e-05 1.26119e-05 4.07242e-05
78 1 2.43109 7.15817 9.30065 -4.85247e-05 -4.25637e-07 2.17833e-05 5.31915e-05
79 1 2.66528 6.11898 6.82295 2.75613e-05 -3.51055e-05 -7.52356e-06 4.52617e-05
80 1 3.80246 7.55551 4.94679 5.03293e-06 -1.56187e-05 1.63582e-05 2.31703e-05
81 1 1.31016 6.80444 1.31001 -4.39372e-05 2.82742e-06 -8.11292e-06 4.47693e-05
82 1 0.871131 9.2933 1.08756 -5.14632e-05 2.27685e-05 1.6167e-05 5.85512e-05
83 1 2.71918 3.78405 10.6976 1.69642e-05 2.99713e-05 1.96598e-05 3.96557e-05
84 1 3.9396 5.19008 8.8908 -9.66334e-06 9.38653e-07 -5.20716e-06 1.10171e-05
85 1 0.632814 2.92452 6.91106 -2.40829e-05 -3.00489e-05 -1.34202e-05 4.07801e-05
86 1 1.8846 4.31449 5.03867 -3.19101e-06 -3.59312e-05 -1.88161e-05 4.06851e-05
87 1 1.54105 3.40969 2.65757 -5.70843e-05 -1.65729e-05 -1.44128e-06 5.94589e-05
88 1 2.61362 4.78938 0.891922 1.35945e-06 -9.65396e-06 -7.17485e-06 1.21048e-05
89 1 1.40576 1.48229 10.2448 3.24401e-05 2.40015e-06 -3.57283e-05 4.8318e-05
90 1 1.49267 4.75535 8.7085 1.40793e-05 -2.04022e-05 -1.24849e-06 2.482e-05
91 1 1.28925 6.94025 4.88273 4.5064e-05 -2.74763e-05 -1.25362e-05 5.42482e-05
92 1 1.98467 10.7371 11.4659 -2.57672e-05 1.30871e-05 1.04491e-05 3.07312e-05
93 1 0.88164 9.10803 9.81944 -1.4489e-05 6.84131e-06 -2.30035e-05 2.80338e-05
94 1 0.676607 11.2464 5.98853 -1.55811e-05 1.15449e-05 -7.67163e-06 2.08545e-05
95 1 3.0403 12.252 9.60586 -1.60857e-05 -2.92667e-05 -2.892e-05 4.41775e-05
96 1 3.49294 9.60911 9.80426 1.27484e-05 -1.38426e-05 -4.68579e-05 5.04956e-05
97 1 0.473734 12.5912 11.9856 5.27514e-05 -3.58635e-06 -3.5297e-05 6.35723e-05
98 1 1.57617 0.437373 7.68506 2.87785e-05 -1.61985e-05 -9.79656e-06 3.44466e-05
99 1 1.54872 2.52585 0.324367 5.65353e-05 2.13422e-05 -1.00468e-05 6.1259e-05
100 1 0.510681 0.959453 2.11706 2.9205e-05 -1.30337e-05 -1.97563e-05 3.75915e-05
101 1 2.75355 1.83864 5.76571 4.01457e-06 3.24107e-06 -5.19547e-06 7.32217e-06
102 1 10.9069 0.686918 6.24679 -3.48246e-06 -4.38495e-05 -2.86857e-05 5.25145e-05
103 1 2.66417 2.61304 8.40961 -2.36085e-05 -9.40831e-06 2.4217e-05 3.51047e-05
104 1 1.81053 12.6449 4.11542 3.14591e-05 6.02061e-06 1.39235e-06 3.20603e-05
105 1 2.40562 8.18619 11.6565 1.41175e-05 -4.73975e-05 -4.93176e-06 4.97005e-05
106 1 1.95487 11.672 1.6853 -5.13684e-05 2.90586e-05 -2.15112e-05 6.2816e-05
107 1 0.849221 10.2598 3.54034 2.88925e-05 -1.05185e-05 -3.87135e-05 4.94383e-05
108 1 3.96096 7.32203 1.31273 2.77364e-06 8.82976e-06 3.21802e-05 3.34847e-05
109 1 2.87927 5.90318 3.18219 9.64879e-06 -3.7366e-05 2.40234e-05 4.54581e-05
110 1 6.23127 8.03119 5.11687 1.65978e-05 2.66196e-05 1.84524e-06 3.14244e-05
111 1 5.09783 6.59744 7.00518 -2.34042e-05 2.90297e-06 2.60371e-05 3.513e-05
112 1 4.90717 7.57523 9.4005 -4.84676e-05 1.13934e-05 -1.30167e-05 5.14621e-05
113 1 3.78294 6.1624 11.2769 -2.90652e-05 3.05456e-05 1.52282e-05 4.48299e-05
114 1 5.22816 4.17975 10.882 -2.11569e-05 7.2381e-06 2.14651e-05 3.09961e-05
115 1 6.05381 10.3928 1.12541 5.60612e-05 -1.03825e-05 3.6387e-06 5.71305e-05
116 1 4.69726 9.96106 5.56823 -1.0758e-05 -6.96171e-06 -6.58442e-06 1.44068e-05
117 1 3.56897 8.54997 7.4326 1.37671e-05 -5.5564e-06 -2.92764e-05 3.28255e-05
118 1 6.09342 10.1243 9.82829 -1.06511e-05 -4.57631e-06 4.41379e-05 4.56348e-05
119 1 5.03663 8.7196 11.6679 -2.11438e-05 1.19779e-05 1.41867e-05 2.81388e-05
120 1 4.43771 12.1911 1.74352 1.97131e-05 4.18042e-06 7.13342e-06 2.13768e-05
121 1 3.34559 10.7854 3.61727 -2.30884e-05 -1.75053e-05 2.11812e-05 3.58909e-05
122 1 4.93341 8.96838 3.04879 -4.53357e-05 5.96671e-06 4.68329e-06 4.59659e-05
123 1 4.56858 11.0208 7.96533 -3.89213e-05 3.15126e-05 1.46173e-05 5.21687e-05
124 1 6.40767 5.57711 9.01293 2.18064e-06 1.11764e-05 2.8268e-06 1.17328e-05
125 1 4.78327 5.2732 4.8527 5.5364e-06 -6.79163e-05 -3.78168e-05 7.7932e-05
126 1 3.14607 11.8843 6.07315 3.6017e-05 -1.55908e-06 1.28528e-05 3.82734e-05
127 1 2.02193 10.4901 7.94826 9.95594e-06 -3.98225e-06 -1.77946e-05 2.07756e-05
128 1 4.57471 11.3048 11.4681 -3.68158e-06 -5.21538e-06 1.72199e-05 1.83652e-05
129 1 2.95143 0.467621 12.0906 2.57892e-06 1.16973e-05 9.79118e-06 1.54707e-05
130 1 4.2754 0.542083 4.17744 -1.23726e-05 1.13803e-05 -1.92778e-05 2.55779e-05
131 1 5.7502 0.0387834 9.58216 2.6684e-06 3.26768e-05 -2.31242e-05 4.01201e-05
132 1 3.81462 3.93754 6.70501 2.92483e-05 -2.88973e-05 2.05616e-07 4.11164e-05
133 1 4.05582 2.80938 0.473747 -1.53631e-05 1.4499e-05 -7.45687e-06 2.2402e-05
134 1 5.21021 2.73341 5.04095 2.07357e-05 -4.13379e-08 -8.90379e-06 2.25665e-05
135 1 4.29704 0.936656 7.66408 5.64551e-06 1.35493e-05 -8.47144e-06 1.69476e-05
136 1 5.30988 3.12412 8.56174 -8.82222e-06 2.07996e-05 -7.66156e-06 2.38569e-05
137 1 4.11685 1.78267 10.3008 2.64511e-05 1.49698e-05 2.3314e-05 3.83053e-05
138 1 5.04784 5.11431 1.13053 5.55689e-06 2.04777e-05 5.55834e-05 5.94957e-05
139 1 3.91364 3.66968 3.06423 5.96429e-06 -2.31204e-05 1.71748e-05 2.94126e-05
140 1 2.92751 1.41003 2.27666 4.03132e-07 2.46725e-05 -1.39237e-05 2.8333e-05
141 1 10.7763 12.2236 3.96438 -1.20975e-05 1.19956e-05 1.27053e-05 2.12525e-05
