ITEM: TIMESTEP
0
ITEM: NUMBER OF ATOMS
121
ITEM: BOX BOUNDS pp pp pp
0.0000000000000000e+00 1.1436527999999999e+01
0.0000000000000000e+00 1.1745825000000000e+01
0.0000000000000000e+00 1.1261291999999999e+01
ITEM: ATOMS id type x y z fx fy fz v_fmag
1 1 11.4344 0.156893 9.08495 7.98642e-06 -1.73183e-05 -1.56292e-05 2.46572e-05
2 1 6.65041 7.9153 6.24627 -1.79798e-05 -1.13239e-05 2.9789e-05 3.65908e-05
3 1 8.33861 9.78774 5.51186 -1.86403e-05 4.78924e-05 -2.80652e-05 5.8556e-05
4 1 6.83516 8.65258 3.75077 3.38961e-05 -2.13623e-05 -4.81785e-06 4.03548e-05
5 1 9.58094 9.10924 1.11033 -6.99027e-06 -2.69244e-05 1.58887e-05 3.2035e-05
6 1 6.44084 6.20308 11.2597 -1.09046e-05 -2.65135e-06 -3.28279e-05 3.46931e-05
7 1 9.06453 6.79014 8.6364 1.15164e-06 1.74866e-05 2.73409e-05 3.24751e-05
8 1 7.56676 5.69228 6.84089 4.36883e-07 1.32876e-05 -2.20436e-05 2.57424e-05
9 1 7.72128 6.46157 4.35129 2.22485e-06 4.24881e-06 5.1838e-07 4.82401e-06
10 1 6.21341 5.33074 2.52954 4.01256e-05 -2.01756e-06 8.56132e-06 4.10784e-05
11 1 7.90322 7.22032 1.82278 7.02888e-05 2.61883e-05 1.58761e-05 7.66707e-05
12 1 7.39065 4.85352 9.34134 -2.20961e-05 1.17248e-05 5.59206e-06 2.56316e-05
13 1 8.59352 3.57418 7.5161 -2.05993e-05 -2.13418e-05 -2.837e-05 4.10446e-05
14 1 8.15254 9.03204 8.02973 -4.92323e-05 -2.37958e-06 -2.7814e-05 5.6596e-05
15 1 8.63395 4.28676 5.01133 -1.83519e-05 3.83907e-05 7.10671e-06 4.31409e-05
16 1 7.17838 3.87974 0.621568 1.04855e-05 4.46561e-06 2.56564e-05 2.80738e-05
17 1 5.6615 2.8677 10.076 -3.74683e-05 2.02465e-05 -2.60502e-05 4.9924e-05
18 1 7.0249 1.72782 8.37103 -3.59452e-05 8.52566e-06 -2.11213e-05 4.25541e-05
19 1 9.13078 2.08875 4.05423 9.12136e-06 3.37706e-05 -1.56637e-05 3.83276e-05
20 1 7.54768 0.920511 2.25138 5.03519e-05 -3.47704e-05 -2.82223e-05 6.73854e-05
21 1 7.35481 1.39946 11.002 3.91183e-05 -6.51242e-05 5.34662e-05 9.2898e-05
22 1 7.47546 0.19129 4.76599 1.75732e-05 -2.23617e-05 -2.69999e-05 3.92155e-05
23 1 4.03102 0.792628 10.7589 9.36806e-06 -2.25817e-05 2.34558e-05 3.38802e-05
24 1 3.61843 10.3383 7.16366 -2.15885e-05 5.44387e-06 -6.92908e-06 2.33176e-05
25 1 5.86051 10.7442 3.02089 2.45644e-05 -2.68343e-07 -1.31161e-05 2.7848e-05
26 1 5.87657 11.3967 0.576226 1.77767e-05 4.80213e-05 -4.319e-05 6.69883e-05
27 1 5.60997 8.51546 10.6254 4.73922e-05 -2.37902e-05 -2.19337e-05 5.73854e-05
28 1 7.07796 3.13208 3.17943 -2.0217e-05 1.72961e-05 -4.6038e-06 2.70015e-05
29 1 8.08104 8.10569 10.5478 -1.169e-05 2.71302e-05 -1.47707e-05 3.30284e-05
30 1 8.7314 11.3235 0.47119 -3.3389e-05 5.11563e-05 6.95935e-06 6.14835e-05
31 1 8.5285 10.5494 2.97154 -5.16459e-05 4.26092e-05 -2.28203e-05 7.07362e-05
32 1 11.0863 10.2731 2.87358 1.73277e-05 -1.56146e-05 2.83559e-05 3.67168e-05
33 1 11.2373 11.0175 0.368109 6.87197e-06 -5.50245e-06 -3.04693e-05 3.17156e-05
34 1 10.5971 7.74547 10.4595 3.59367e-06 -4.70683e-05 -7.93116e-06 4.78669e-05
35 1 10.7515 8.65937 7.92525 2.52623e-05 -1.13504e-05 1.81146e-05 3.30931e-05
36 1 9.22817 7.60225 6.14636 7.8348e-06 9.09021e-06 -7.98925e-06 1.44168e-05
37 1 10.9194 9.4739 5.40198 8.10068e-07 3.23912e-05 -7.70421e-06 3.33047e-05
38 1 9.40055 8.3672 3.62312 -5.73004e-06 3.1427e-06 6.81254e-06 9.44037e-06
39 1 10.2573 4.76767 9.22444 -6.37679e-06 -1.74961e-05 1.1931e-05 2.21162e-05
40 1 0.401157 6.57543 8.60052 3.93358e-05 2.69508e-05 6.04723e-06 4.80647e-05
41 1 10.2317 5.45893 6.77955 2.58739e-05 -2.97933e-05 3.99056e-06 3.96614e-05
42 1 10.3026 6.20034 4.30552 3.10786e-05 3.12894e-06 1.17171e-05 3.33611e-05
43 1 8.72001 5.01258 2.4999 -1.87025e-05 9.08696e-06 -7.0869e-06 2.19677e-05
44 1 8.98604 5.67967 11.22 -6.05528e-06 1.85826e-05 2.80856e-05 3.42167e-05
45 1 10.6183 2.40306 8.39947 3.5716e-06 -2.29759e-05 -2.6312e-05 3.51137e-05
46 1 10.6926 3.20534 5.87641 -1.37754e-05 1.22636e-05 -9.83474e-06 2.09017e-05
47 1 10.7854 4.00134 3.34682 1.56642e-05 2.7916e-08 -5.03279e-06 1.64529e-05
48 1 9.22503 2.84227 1.45887 2.37137e-05 9.56136e-06 5.12935e-06 2.60781e-05
49 1 8.79528 3.03761 10.0639 3.95601e-06 3.99368e-05 -1.92235e-05 4.44987e-05
50 1 8.95936 0.540839 9.18598 -1.77032e-05 -4.0769e-05 8.66307e-06 4.52831e-05
51 1 9.03637 1.31649 6.61996 3.57333e-06 5.03981e-06 -1.714e-05 1.82194e-05
52 1 0.286771 1.84906 4.00445 -2.03971e-05 1.88803e-05 -2.2923e-05 3.60274e-05
53 1 10.2039 0.739491 2.22563 -2.55591e-05 5.77073e-05 -1.96222e-05 6.60941e-05
54 1 10.4571 1.52499 10.9944 -2.05931e-06 -3.38408e-05 -1.84715e-05 3.86087e-05
55 1 0.145911 1.00562 6.54159 -4.66256e-06 3.21339e-06 2.58494e-05 2.64624e-05
56 1 7.14831 10.5434 9.8564 -2.92777e-05 -4.21085e-06 -5.63745e-06 3.01114e-05
57 1 7.24551 11.2752 7.30492 -1.10619e-05 -2.64058e-05 -2.09027e-05 3.54479e-05
58 1 10.0446 11.6698 4.75265 -2.01873e-05 -1.98913e-05 -1.74751e-06 2.83945e-05
59 1 5.61553 9.35053 8.15928 4.35811e-06 -5.20986e-06 -3.1004e-06 7.46648e-06
60 1 9.85508 10.8599 7.29051 3.90588e-06 -4.24161e-06 -5.5106e-05 5.54068e-05
61 1 4.11872 8.11128 6.29045 4.68393e-05 -2.66752e-07 1.8074e-05 5.02061e-05
62 1 4.21266 8.86652 3.75898 -2.33494e-05 3.28327e-05 3.18255e-06 4.04142e-05
63 1 1.0331 5.86119 2.57463 5.39944e-06 3.01719e-05 1.09098e-06 3.06706e-05
64 1 2.67474 7.72912 1.90564 4.24787e-05 -3.73999e-05 1.35794e-05 5.8203e-05
65 1 2.35718 5.35341 9.51024 -1.33995e-05 -7.01645e-06 3.04161e-05 3.39694e-05
66 1 3.41088 3.87408 7.67124 3.65871e-05 -2.75848e-05 2.20974e-05 5.08708e-05
67 1 3.5232 4.72938 5.1583 5.06489e-06 -4.32577e-05 2.60416e-05 5.07449e-05
68 1 1.97911 3.73903 3.28496 -2.13543e-05 4.70172e-05 3.24832e-05 6.10064e-05
69 1 2.27343 4.69544 0.725669 -1.40917e-05 -1.86646e-05 -3.73063e-05 4.40307e-05
70 1 0.684705 3.45862 10.2008 -2.85959e-06 9.05787e-06 -3.00518e-05 3.15171e-05
71 1 1.72391 2.05172 8.34969 -4.18427e-05 -1.71971e-05 8.52007e-06 4.60341e-05
72 1 4.44396 2.45865 5.81166 -3.43395e-06 1.01821e-05 2.89957e-05 3.09228e-05
73 1 2.84874 1.55128 3.92699 7.84912e-06 -1.63323e-05 4.02067e-06 1.85612e-05
74 1 2.9842 2.38304 1.37364 6.88151e-06 -4.90262e-05 6.18047e-06 4.98911e-05
75 1 2.5834 6.94224 4.47787 -2.6188e-05 4.16843e-05 4.32437e-05 6.55241e-05
76 1 2.68215 0.702011 6.46018 -3.7043e-06 -1.10901e-05 3.55572e-06 1.22211e-05
77 1 1.2867 0.526819 2.10957 3.34653e-05 -1.93786e-05 2.88963e-06 3.8779e-05
78 1 0.828862 9.66154 9.73619 1.91418e-05 -3.14153e-05 1.94841e-05 4.16288e-05
79 1 0.994446 10.5437 7.18542 6.74694e-06 2.36261e-06 1.66543e-05 1.81237e-05
80 1 2.18321 9.99905 2.81177 2.42876e-05 4.03227e-05 3.97362e-05 6.16017e-05
81 1 1.85656 7.57366 10.5105 -3.29986e-05 -2.51034e-05 9.92089e-07 4.14737e-05
82 1 0.458932 7.32381 6.09044 3.52374e-05 -1.65145e-05 -1.23295e-05 4.08217e-05
83 1 0.618343 8.739 1.05587 -7.87393e-07 1.50349e-05 -1.48207e-05 2.11263e-05
84 1 0.840331 4.28489 7.67306 -3.26352e-05 2.77957e-05 1.39112e-05 4.50687e-05
85 1 0.922921 5.08571 5.14735 9.29619e-06 3.96082e-05 -3.33124e-05 5.25827e-05
86 1 10.3856 6.86201 1.79157 -1.88268e-05 -1.19095e-05 9.36353e-06 2.41652e-05
87 1 1.83713 2.89888 5.81755 1.46792e-05 6.55593e-06 7.88153e-06 1.79047e-05
88 1 0.4291 2.88136 1.40819 -2.15828e-06 -5.76251e-06 2.27328e-06 6.55992e-06
89 1 1.16305 11.3896 4.65281 -8.46971e-06 -2.76755e-05 -6.1321e-06 2.9585e-05
90 1 2.48906 6.14584 7.0007 -7.64178e-06 1.43576e-05 5.12812e-06 1.70539e-05
91 1 3.9985 7.32127 8.80935 -1.71785e-05 -2.78302e-05 1.91569e-05 3.79026e-05
92 1 0.175999 5.65718 11.2439 -3.87621e-06 -6.58956e-05 4.88678e-07 6.60113e-05
93 1 7.06144 9.42099 1.21766 4.44859e-05 -1.09666e-05 -1.94593e-05 4.97788e-05
94 1 3.95444 6.62469 0.0514112 -9.31352e-06 2.24401e-05 2.46561e-05 3.46154e-05
95 1 6.51558 7.08607 8.7283 1.92242e-06 2.08665e-05 -1.30941e-05 2.47095e-05
96 1 5.02071 5.91406 6.94182 2.26656e-05 1.05598e-06 -1.02409e-05 2.48942e-05
97 1 5.17217 6.71161 4.4445 1.77316e-05 3.15402e-05 2.24312e-05 4.25717e-05
98 1 3.68309 5.63758 2.62982 8.99304e-07 4.13549e-06 -3.66977e-05 3.69409e-05
99 1 5.37391 7.54757 1.93657 -2.36253e-05 -8.46596e-06 1.02028e-06 2.51171e-05
100 1 4.87138 5.11084 9.46103 2.86873e-05 -4.29334e-05 2.2609e-05 5.63685e-05
101 1 5.92134 3.72939 7.56725 -2.42407e-05 8.49609e-06 1.48491e-05 2.96697e-05
102 1 6.05719 4.50659 5.05442 -2.80975e-05 3.27717e-05 3.55842e-05 5.59436e-05
103 1 4.52767 3.42328 3.23524 6.40157e-06 9.06771e-06 -8.45875e-06 1.39554e-05
104 1 4.71221 4.30612 0.696213 1.42043e-05 -1.53783e-05 -9.84858e-06 2.31354e-05
105 1 3.20651 3.08747 10.1472 1.616e-05 -8.65759e-07 8.94684e-06 1.84916e-05
106 1 4.37741 1.52592 8.25454 -6.69674e-07 -8.77211e-06 1.10422e-06 8.86666e-06
107 1 6.9963 2.362 5.75209 2.35198e-06 2.51707e-05 -7.76004e-06 2.64445e-05
108 1 5.42853 1.24058 3.87062 7.99694e-06 -9.0962e-06 -7.55482e-06 1.42747e-05
109 1 5.48118 2.01962 1.35503 -3.08776e-06 -2.84134e-06 -2.2932e-05 2.33128e-05
110 1 1.51415 1.22073 10.8953 -2.67228e-05 -4.40384e-05 -9.88212e-06 5.24513e-05
111 1 2.49209 11.5666 9.00702 -4.2694e-05 -1.08907e-05 -1.24062e-05 4.57744e-05
112 1 3.73131 11.1235 4.60288 -3.21006e-05 1.05296e-05 -1.67121e-05 3.76911e-05
113 1 3.82388 0.136673 2.07396 -2.32675e-05 2.57294e-06 1.67868e-05 2.88062e-05
114 1 2.26509 10.6875 0.3284 -2.77864e-06 1.70466e-05 8.24607e-06 1.91391e-05
115 1 3.51593 9.50874 9.81069 -3.96733e-05 -2.25444e-05 1.5301e-05 4.81284e-05
116 1 2.00927 8.43523 7.89015 -8.00515e-06 1.8038e-06 4.1778e-06 9.20815e-06
117 1 2.09685 9.21469 5.34013 -1.81773e-05 -2.01746e-05 -4.3923e-06 2.75086e-05
118 1 0.545274 8.06872 3.56701 4.46653e-05 1.68397e-05 2.07948e-05 5.20671e-05
119 1 4.26788 9.57595 1.19455 -4.91443e-06 2.67841e-05 2.30216e-05 3.56586e-05
120 1 5.74311 10.1417 5.59608 4.83509e-06 -1.11479e-05 3.62471e-05 3.82296e-05
121 1 9.70848 9.99931 9.81989 1.48953e-05 1.10289e-05 -5.50951e-06 1.93355e-05
