ITEM: TIMESTEP
0
ITEM: NUMBER OF ATOMS
135
ITEM: BOX BOUNDS pp pp pp
0.0000000000000000e+00 1.1436527999999999e+01
0.0000000000000000e+00 1.1745825000000000e+01
0.0000000000000000e+00 1.1261291999999999e+01
ITEM: ATOMS id type x y z fx fy fz v_fmag
1 1 2.28959 1.69884 0.604849 -3.23364e-05 -6.21054e-05 -2.6379e-05 7.48236e-05
2 1 8.69815 0.396312 10.1415 8.20929e-05 3.2554e-05 -5.21612e-06 8.84659e-05
3 1 10.2122 2.09921 9.31039 -6.70585e-07 -9.61834e-06 6.18633e-06 1.14557e-05
4 1 9.32179 0.358281 7.77483 4.62464e-05 -0.000247863 7.73523e-05 0.000263739
5 1 9.4853 2.10174 4.89961 -8.31896e-06 -1.01361e-06 -2.84808e-05 2.96882e-05
6 1 8.42073 2.12183 2.73486 2.76753e-05 6.10224e-05 5.6555e-06 6.72431e-05
7 1 8.79597 2.55467 0.320453 8.39398e-07 2.30482e-06 1.63541e-05 1.6537e-05
8 1 10.1217 10.1558 8.55947 -8.59778e-05 4.33768e-05 -7.68196e-05 0.000123187
9 1 10.4305 11.6894 5.63726 -2.61585e-05 -5.51796e-05 1.13758e-05 6.21165e-05
10 1 9.71394 0.367728 1.08344 -5.09614e-06 2.24739e-05 -1.69863e-06 2.3107e-05
11 1 7.1825 10.3951 10.8169 -1.63568e-05 -3.63004e-05 -1.85325e-05 4.39172e-05
12 1 6.40078 10.52 6.22388 -4.53104e-05 2.61709e-05 -1.71455e-05 5.50628e-05
13 1 6.90292 0.375162 3.41997 -2.48176e-05 8.571e-08 -4.09965e-06 2.51541e-05
14 1 5.65027 8.66761 0.258821 -1.25564e-05 6.77401e-05 -4.20077e-06 6.90219e-05
15 1 8.41024 8.66043 9.25385 -1.83627e-05 -3.08438e-05 2.84313e-05 4.57915e-05
16 1 9.98658 3.85076 2.07161 -5.2967e-05 -3.40751e-05 1.8394e-05 6.56121e-05
17 1 7.35483 8.45937 7.08372 -1.55132e-05 3.03591e-05 -3.33541e-05 4.76952e-05
18 1 6.61084 8.63635 2.49196 1.39766e-06 6.86951e-05 2.31628e-05 7.25085e-05
19 1 8.15133 10.3795 1.78502 4.57689e-06 -5.1344e-05 2.4742e-05 5.7178e-05
20 1 5.35666 5.21259 10.703 -1.897e-05 2.89251e-05 -1.34386e-05 3.71096e-05
21 1 6.88417 6.94625 9.99227 3.50635e-06 1.28274e-05 -1.80003e-05 2.23796e-05
22 1 5.84048 6.80979 7.81612 -3.59536e-05 -6.64076e-05 -2.24114e-06 7.5549e-05
23 1 8.80612 7.76184 5.06142 1.86253e-05 2.69541e-05 -1.26684e-05 3.5127e-05
24 1 7.5589 6.45479 3.3584 -0.000102262 -5.67052e-05 -3.89713e-05 0.000123255
25 1 6.5842 6.49062 1.14278 2.38496e-05 -1.40093e-06 3.8813e-05 4.55765e-05
26 1 5.28993 3.00751 9.22099 3.53096e-05 -1.34516e-05 3.66831e-06 3.79628e-05
27 1 6.78614 4.73216 8.67855 -3.0707e-05 9.2967e-05 2.39274e-05 0.000100788
28 1 5.56803 4.00028 6.66256 -0.000133788 3.68622e-06 6.59567e-05 0.000149209
29 1 7.09592 6.26445 5.75623 -0.000103399 5.51247e-05 -4.71022e-05 0.000126288
30 1 6.04122 4.71487 4.16816 -3.29687e-05 2.70612e-05 -4.24423e-05 6.01714e-05
31 1 7.50289 4.30869 1.97131 6.57112e-05 5.6394e-05 1.16194e-05 8.73685e-05
32 1 7.85012 9.938 4.2069 6.42988e-06 -3.55349e-06 -2.49778e-05 2.60358e-05
33 1 6.23528 0.820819 9.99066 9.59709e-06 2.87982e-05 9.53288e-06 3.18169e-05
34 1 8.51819 4.28 4.17466 6.63053e-06 1.18838e-05 -1.5574e-05 2.06818e-05
35 1 7.89691 4.31613 6.54191 8.48357e-05 -0.00018817 7.77711e-05 0.000220575
36 1 0.0997841 5.59412 1.42904 2.16553e-05 5.73606e-05 -6.3268e-05 8.81024e-05
37 1 11.376 9.61116 6.49897 -2.59201e-05 9.10126e-05 -4.84282e-05 0.000106303
38 1 0.42332 11.2097 3.61256 -8.97377e-07 -7.05474e-06 4.2339e-05 4.29321e-05
39 1 10.6057 7.78593 0.56194 1.91696e-05 -7.43257e-05 1.98284e-05 7.92776e-05
40 1 0.129795 7.75453 2.79487 -1.6647e-05 -2.62999e-05 6.58351e-06 3.18143e-05
41 1 10.3136 4.30135 10.8967 -1.56034e-05 1.90592e-05 -4.66753e-05 5.2776e-05
42 1 10.8155 5.90096 8.09165 -2.77541e-05 2.44777e-05 3.7199e-05 5.24711e-05
43 1 11.2446 2.11267 0.364983 5.89998e-05 -6.31945e-06 -5.16244e-05 7.8651e-05
44 1 10.7385 3.19448 6.7826 5.93282e-05 2.31646e-05 1.38531e-07 6.36903e-05
45 1 10.9812 3.85548 4.32539 6.6632e-05 -1.16617e-05 -2.41133e-05 7.18141e-05
46 1 11.1752 11.707 10.1469 5.39483e-05 2.85859e-06 8.10625e-06 5.46288e-05
47 1 0.212924 0.678589 7.65214 -5.36028e-05 -3.35037e-05 3.85874e-05 7.40591e-05
48 1 10.9179 1.65739 2.82662 1.36558e-05 2.99643e-05 -2.45408e-05 4.10681e-05
49 1 9.65755 9.9674 10.9571 5.1275e-06 1.58278e-05 7.31366e-06 1.81742e-05
50 1 9.77981 5.54846 5.93253 -5.21567e-06 -4.58541e-05 2.77146e-06 4.6233e-05
51 1 8.91051 10.039 6.39281 3.9852e-05 5.6837e-05 7.50235e-06 6.98206e-05
52 1 8.12928 8.22421 0.416717 -2.59576e-05 -3.8006e-06 -2.0598e-05 3.33545e-05
53 1 10.973 8.14498 9.41693 -1.69148e-05 -4.43143e-05 5.04775e-06 4.77006e-05
54 1 9.86167 7.96171 7.23166 -6.18926e-05 -1.83916e-05 5.05733e-06 6.47652e-05
55 1 10.3322 9.47602 4.32292 -7.69968e-05 -2.66517e-06 -4.65356e-05 9.00065e-05
56 1 9.08725 8.19795 2.63732 7.81025e-05 7.47731e-05 1.58218e-05 0.000109276
57 1 10.6325 9.93158 1.91129 -3.74492e-05 -3.58179e-05 -2.85935e-08 5.18205e-05
58 1 7.85049 4.75241 10.8302 4.55082e-05 2.73952e-05 -2.86095e-05 6.03323e-05
59 1 9.36636 6.48417 10.1088 3.15019e-05 4.64504e-06 -3.84591e-05 4.99305e-05
60 1 8.30601 6.38247 7.92312 3.17583e-05 2.7309e-05 4.13974e-05 5.88907e-05
61 1 11.2873 7.28317 5.232 -3.33621e-05 -7.41346e-05 -8.50746e-06 8.17395e-05
62 1 10.034 6.02699 3.49858 3.77985e-05 4.44123e-05 2.77333e-06 5.83856e-05
63 1 9.06537 6.0428 1.26934 -3.3523e-05 -3.81572e-05 -1.23585e-05 5.22733e-05
64 1 7.731 2.57458 9.41751 -2.72787e-05 -5.2377e-05 3.23749e-05 6.7347e-05
65 1 9.25553 4.25547 8.66554 6.46556e-05 6.0602e-05 -7.33937e-05 0.000115063
66 1 9.36582 11.67 3.48589 -1.04076e-05 -7.88999e-05 4.72027e-05 9.2529e-05
67 1 1.37021 9.01661 4.50133 2.9907e-05 5.79265e-06 -3.4403e-05 4.59516e-05
68 1 8.60908 2.33722 7.15916 1.07875e-05 0.000335104 -0.000150023 0.000367312
69 1 7.0042 2.57682 5.00631 2.05192e-05 2.19984e-06 -5.21154e-05 5.60526e-05
70 1 4.76064 1.27304 0.811358 5.44897e-05 -3.72243e-05 -2.95713e-05 7.23134e-05
71 1 2.2445 11.283 10.4028 -4.52642e-05 2.01418e-05 6.83822e-05 8.44433e-05
72 1 1.45283 11.2666 5.82803 -5.374e-05 3.10107e-05 -1.32652e-05 6.34477e-05
73 1 0.732294 11.6846 1.18495 6.46169e-05 1.94068e-06 -2.928e-05 7.09678e-05
74 1 0.696543 9.54383 11.0678 -1.50575e-05 3.43545e-05 -3.14493e-06 3.76411e-05
75 1 3.48821 9.62573 8.84911 -1.8586e-05 3.63941e-05 -1.34754e-05 4.30298e-05
76 1 2.41107 9.21437 6.69335 -2.02789e-05 1.00569e-05 1.58834e-05 2.76525e-05
77 1 2.89028 10.7685 3.82061 -3.73817e-05 -2.18012e-05 1.17469e-05 4.48406e-05
78 1 1.66055 9.50165 2.07384 -1.49622e-05 -1.22816e-05 -3.76316e-06 1.97197e-05
79 1 3.20681 11.2585 1.41522 -1.14115e-05 -7.67617e-06 -2.70763e-05 3.03689e-05
80 1 0.434286 6.04569 10.2925 9.06712e-06 -7.93618e-07 1.54002e-05 1.78887e-05
81 1 1.96459 7.84513 9.58177 -5.68882e-06 -1.35238e-06 -1.8683e-05 1.95767e-05
82 1 0.89334 7.57136 7.40588 7.87469e-06 2.0965e-05 2.93301e-05 3.69025e-05
83 1 3.81578 8.57721 4.73268 -4.62508e-05 4.24976e-05 7.69673e-06 6.32805e-05
84 1 5.43149 0.853806 5.43569 3.21817e-05 -3.27532e-05 -9.59784e-06 4.69101e-05
85 1 2.60087 7.31562 3.00616 1.04205e-05 9.45104e-06 -1.43546e-05 2.00988e-05
86 1 0.34816 3.8219 8.88117 2.52743e-05 6.10683e-06 1.45532e-05 2.97973e-05
87 1 1.86088 5.53018 8.28289 -1.97672e-05 4.25546e-05 -4.86191e-06 4.71728e-05
88 1 0.775822 5.01466 6.16318 8.38274e-06 -2.03208e-05 -2.15715e-05 3.07983e-05
89 1 2.2922 6.79706 5.4652 -6.25649e-05 4.31894e-06 -9.82744e-06 6.34792e-05
90 1 1.06699 5.5837 3.68996 -1.22876e-05 -1.48722e-05 4.47224e-05 4.87058e-05
91 1 2.57341 5.16375 1.63894 1.74653e-05 1.74686e-05 3.00066e-05 3.88663e-05
92 1 1.30842 1.69114 9.59064 -4.63955e-05 -4.15565e-05 8.79704e-05 0.000107788
93 1 1.68059 2.6017 7.05106 3.44714e-05 -5.99869e-05 2.34179e-05 7.30418e-05
94 1 0.489919 1.66893 5.0959 8.60101e-05 3.67744e-05 -1.24943e-05 9.43727e-05
95 1 1.99551 3.40936 4.52872 -5.86758e-05 -6.67194e-05 1.47789e-05 9.00708e-05
96 1 1.01952 3.40342 2.24345 7.20139e-05 -1.28641e-05 -6.56655e-06 7.3448e-05
97 1 1.36666 3.88245 11.106 -2.69537e-05 -8.38983e-05 -1.31781e-05 8.91016e-05
98 1 2.59756 0.194346 7.90091 -2.62449e-06 -5.02481e-05 2.74621e-05 5.7323e-05
99 1 1.94748 1.21505 3.01805 1.56356e-05 1.1367e-05 2.15538e-05 2.89525e-05
100 1 1.64385 7.35561 0.745315 -2.51185e-05 -7.07551e-05 2.65072e-05 7.96232e-05
101 1 6.47755 1.48447 7.53333 -1.88439e-05 -1.1758e-05 -1.7925e-06 2.22835e-05
102 1 5.00448 11.4088 8.15167 3.2087e-05 2.94437e-05 2.09985e-05 4.83472e-05
103 1 3.49063 2.97758 2.45006 4.81439e-05 6.09854e-05 3.853e-05 8.67272e-05
104 1 5.97209 2.5637 2.69003 -2.37263e-05 -6.23976e-06 -7.72967e-06 2.5722e-05
105 1 6.29872 3.01912 0.228627 -8.16179e-06 -1.74452e-05 -3.30904e-05 3.82874e-05
106 1 7.4366 10.8748 8.38265 8.72261e-06 -3.43779e-05 1.01905e-05 3.69022e-05
107 1 7.96083 0.420555 5.65194 -8.63677e-06 1.87015e-05 -2.96792e-05 3.61275e-05
108 1 7.23017 0.825753 0.983383 4.56396e-06 4.70537e-05 2.43038e-05 5.3156e-05
109 1 4.7131 10.8383 10.6253 9.91337e-06 5.06325e-05 1.09701e-05 5.27472e-05
110 1 3.91882 10.8908 6.03276 4.89319e-05 2.69299e-05 -1.14778e-05 5.70201e-05
111 1 4.41345 0.793952 3.21027 3.14578e-05 2.88934e-05 2.38419e-05 4.89168e-05
112 1 3.17914 9.10657 0.0472391 4.1055e-05 3.27307e-05 -9.254e-06 5.33146e-05
113 1 5.92937 9.13942 9.08265 9.67186e-07 3.8028e-05 2.70385e-05 4.66706e-05
114 1 4.88651 8.84929 6.90904 -1.06239e-05 4.65757e-05 -2.55118e-05 5.41573e-05
115 1 5.34593 10.3761 4.02288 -3.46413e-05 1.58276e-05 1.69585e-05 4.16908e-05
116 1 4.13619 9.0667 2.30812 3.59148e-05 2.21606e-05 -1.59931e-06 4.22318e-05
117 1 5.68043 10.8282 1.62522 -2.1407e-06 -5.83221e-05 -9.83319e-07 5.83696e-05
118 1 3.83259 3.46147 0.0370032 -7.65401e-07 -1.84425e-05 -1.98772e-05 2.71259e-05
119 1 2.88977 5.65382 10.4947 6.72724e-05 2.49491e-05 -5.77413e-05 9.20983e-05
120 1 3.3688 7.20618 7.62151 3.60274e-06 -3.27461e-05 5.07658e-05 6.05182e-05
121 1 6.24421 8.27604 4.89823 1.54677e-05 -1.47063e-05 3.60594e-05 4.19023e-05
122 1 5.08337 6.87836 3.24683 -1.89191e-06 -3.77457e-05 -4.85326e-05 6.1512e-05
123 1 4.11954 6.9206 0.979653 -2.07942e-05 -5.35379e-06 1.67627e-06 2.15377e-05
124 1 2.83551 3.42606 9.04318 4.6269e-05 -1.62733e-05 -2.39999e-06 4.9106e-05
125 1 4.32706 5.15476 8.48783 4.68529e-05 2.70948e-05 5.40021e-06 5.43919e-05
126 1 3.18304 4.48378 6.41398 1.04219e-05 1.34878e-05 5.80507e-05 6.05014e-05
127 1 4.69951 6.34581 5.70551 6.42291e-06 -2.24431e-05 3.37514e-05 4.10379e-05
128 1 3.53563 5.1391 3.91251 3.91101e-05 -2.95635e-05 -2.23289e-05 5.38719e-05
129 1 5.04791 4.73761 1.86916 -1.14278e-05 7.64488e-06 3.84649e-05 4.08484e-05
130 1 3.7846 1.26691 9.78731 -1.81165e-05 -5.30815e-05 2.23241e-05 6.03674e-05
131 1 4.09945 2.07752 7.26458 2.24566e-05 -4.01369e-05 3.70442e-05 5.90554e-05
132 1 2.94425 1.25 5.27373 -2.00673e-05 -3.30957e-05 -2.78879e-06 3.88047e-05
133 1 4.47161 2.98489 4.72572 -2.85795e-05 6.2227e-05 -2.78698e-05 7.39305e-05
134 1 4.40989 7.40577 9.81329 -1.7964e-05 -3.58358e-05 1.44094e-06 4.01122e-05
135 1 1.08125 10.0773 8.60875 -4.24646e-05 -6.6688e-05 2.81836e-05 8.39336e-05
