ITEM: TIMESTEP
0
ITEM: NUMBER OF ATOMS
161
ITEM: BOX BOUNDS pp pp pp
0.0000000000000000e+00 1.1400361000000000e+01
0.0000000000000000e+00 1.2098903999999999e+01
0.0000000000000000e+00 1.2816801000000000e+01
ITEM: ATOMS id type x y z fx fy fz v_fmag
1 1 11.0732 2.314 3.50859 -3.4087e-05 2.69526e-05 -3.14116e-05 5.36195e-05
2 1 7.65734 5.85684 4.18872 -7.40533e-05 -9.69164e-06 7.94053e-05 0.000109009
3 1 6.36987 4.21743 5.67003 9.3875e-06 5.15365e-05 3.62157e-05 6.36845e-05
4 1 8.20919 5.2603 8.33621 -9.20679e-05 2.46377e-05 -3.06462e-05 0.000100113
5 1 6.8915 3.61156 9.80413 6.21098e-06 -1.3355e-05 -6.39034e-05 6.55788e-05
6 1 6.28647 4.19298 12.0354 7.56804e-08 -2.5765e-05 4.49438e-05 5.18053e-05
7 1 7.52226 8.61255 0.658407 -9.43596e-05 -5.16591e-05 -2.31314e-05 0.000110034
8 1 6.46 6.98826 2.25075 -5.87462e-05 -6.65599e-05 3.49724e-05 9.54171e-05
9 1 5.73552 4.79099 1.47835 8.44104e-06 -3.52529e-05 2.8521e-05 4.61245e-05
10 1 8.39605 8.12754 4.92755 2.1861e-05 -1.50941e-06 5.84745e-05 6.24456e-05
11 1 6.49588 7.0767 8.68179 -0.000117986 -1.69949e-05 2.14283e-05 0.000121114
12 1 5.18288 5.42983 10.1467 -1.92398e-05 8.62736e-06 2.61553e-05 3.35961e-05
13 1 9.0709 9.69224 1.91477 -1.58329e-05 -7.14571e-05 4.59677e-05 8.64282e-05
14 1 7.10686 9.19881 3.04346 2.15787e-05 -3.02258e-06 -3.63876e-06 2.20911e-05
15 1 6.72096 9.92788 5.28586 -6.39041e-06 -3.43961e-05 5.74304e-05 6.72472e-05
16 1 5.38817 8.26164 6.78978 -7.78461e-05 5.28014e-05 -1.50286e-05 9.52568e-05
17 1 8.3408 8.14336 11.3061 3.20786e-05 -8.77726e-06 6.50963e-06 3.38888e-05
18 1 7.10242 6.46628 6.44317 -4.37217e-05 5.34551e-05 3.28001e-05 7.64518e-05
19 1 6.97371 6.40128 12.797 1.13073e-05 -1.41296e-05 1.65301e-05 2.45101e-05
20 1 8.17634 5.23687 1.90908 1.74233e-05 -5.39408e-05 7.73325e-06 5.721e-05
21 1 6.17375 1.35361 9.06349 -3.15495e-05 3.92976e-05 6.17323e-06 5.07718e-05
22 1 4.35909 0.337865 1.35055 4.18164e-06 3.27789e-05 -2.08927e-05 3.90953e-05
23 1 3.93031 10.8329 3.05284 0.000224405 0.00014974 -9.76326e-05 0.000286901
24 1 6.07872 10.5321 7.48381 3.90362e-05 6.15514e-06 -6.23925e-06 4.0008e-05
25 1 4.76996 8.89279 9.01113 -4.9958e-05 -3.41996e-05 1.3731e-05 6.20802e-05
26 1 6.56553 9.9524 11.6397 -1.28654e-05 -2.02596e-05 8.05696e-05 8.4068e-05
27 1 4.9604 11.7217 5.49674 4.72246e-05 -4.64135e-06 3.60976e-05 5.96217e-05
28 1 5.4796 11.15 9.71312 -6.66303e-05 4.44054e-05 2.60975e-05 8.42171e-05
29 1 7.99825 2.40561 11.6972 3.47363e-05 -1.04861e-05 -3.28017e-05 4.89134e-05
30 1 9.13791 1.25388 0.773359 -1.77726e-05 -1.40639e-05 7.73658e-06 2.39481e-05
31 1 6.75985 0.728516 6.8342 3.01268e-05 -1.57367e-05 -1.48692e-05 3.70993e-05
32 1 7.28641 0.146895 10.9648 1.72006e-05 1.02658e-05 -2.89784e-05 3.52278e-05
33 1 7.44341 3.01517 1.13481 -4.58566e-06 -3.02099e-05 -3.78751e-05 4.8664e-05
34 1 6.20711 1.4295 2.63503 -1.15302e-05 -7.23676e-05 1.09236e-05 7.40901e-05
35 1 6.92442 3.63516 3.41447 -2.49777e-06 -3.83355e-05 -1.39743e-05 4.08795e-05
36 1 5.69563 1.94367 4.91206 2.66036e-05 -4.37462e-05 -7.71525e-05 9.25959e-05
37 1 7.48344 2.99878 7.57134 -4.40302e-05 -2.81428e-06 2.11074e-05 4.89091e-05
38 1 7.57829 0.259316 4.66504 2.73152e-05 -0.000106611 -4.31298e-05 0.000118204
39 1 7.99369 11.7721 2.2801 1.21368e-05 -3.43166e-05 8.80489e-06 3.74494e-05
40 1 6.02943 11.2787 3.4086 7.57921e-05 -2.26076e-05 4.72256e-05 9.21184e-05
41 1 9.62105 9.82081 8.42721 -1.80755e-05 1.13247e-05 -6.54597e-06 2.23119e-05
42 1 8.73082 4.65449 12.4703 2.03176e-05 -6.52682e-06 1.05945e-05 2.38253e-05
43 1 11.2665 7.88446 1.70963 -3.77831e-05 -0.000127431 -5.47274e-05 0.00014374
44 1 8.89364 7.44261 2.6885 -2.47351e-05 -4.76284e-05 2.19598e-05 5.79873e-05
45 1 10.7417 8.534 3.97309 -8.22902e-05 -3.07501e-06 5.28251e-05 9.78347e-05
46 1 9.52923 6.92854 6.842 3.53601e-05 -2.34317e-05 5.47324e-06 4.27708e-05
47 1 8.92693 7.51827 9.07683 -6.49688e-05 7.71814e-06 3.92855e-05 7.63143e-05
48 1 7.61723 5.87309 10.569 5.93571e-06 7.08335e-05 4.31359e-05 8.31464e-05
49 1 9.32185 4.05331 10.2293 9.1729e-06 3.4515e-05 9.29073e-06 3.69018e-05
50 1 0.0451437 10.8796 11.0845 -5.86203e-06 -4.0705e-06 -7.23761e-05 7.27271e-05
51 1 10.2201 9.22976 6.17988 -3.24947e-05 1.70072e-05 -2.95652e-05 4.71089e-05
52 1 7.81423 8.72502 7.17552 -4.07132e-05 5.63621e-05 2.9418e-06 6.9591e-05
53 1 10.1402 9.24914 12.6436 6.03508e-05 2.47191e-05 -4.36056e-05 7.84519e-05
54 1 9.40506 6.92829 0.411502 1.38837e-05 -4.0151e-05 -4.19346e-05 5.9694e-05
55 1 10.3258 0.139482 2.72434 3.98946e-05 -6.45321e-05 -0.000113247 0.000136312
56 1 9.09068 10.4372 4.19176 2.99476e-05 4.65659e-05 -1.32927e-06 5.53806e-05
57 1 10.9584 11.4645 6.88843 2.8869e-05 4.00908e-05 1.42522e-05 5.14181e-05
58 1 11.1699 10.1378 2.27084 0.0002394 0.000169439 1.02858e-05 0.000293476
59 1 10.6365 5.70245 8.75164 -2.91018e-05 4.52425e-05 -2.91804e-05 6.11988e-05
60 1 8.81419 4.67892 6.10492 -1.12452e-05 1.65517e-05 -1.84925e-05 2.72468e-05
61 1 10.087 6.28747 4.61241 -8.62064e-06 -3.28484e-05 -1.49533e-05 3.71071e-05
62 1 7.20416 9.33899 9.40694 -3.32981e-05 3.0425e-05 2.35443e-05 5.08801e-05
63 1 8.37965 11.0431 0.0376143 3.8999e-05 1.07566e-05 -3.2967e-05 5.21867e-05
64 1 8.53513 11.0184 6.50058 4.34754e-05 1.78877e-05 4.80457e-05 6.72196e-05
65 1 7.8965 11.6318 8.73336 1.1726e-05 -9.8819e-07 -2.07219e-05 2.38301e-05
66 1 10.8072 11.5817 0.436451 -1.72054e-05 -5.79524e-06 6.79539e-05 7.03373e-05
67 1 9.91014 0.603757 5.00407 1.36211e-05 8.33353e-06 2.13621e-05 2.66706e-05
68 1 9.20229 1.18235 7.21807 1.17957e-05 -4.88528e-07 -1.09109e-05 1.60756e-05
69 1 9.7125 0.610234 11.3506 5.93818e-05 2.40392e-05 -2.83834e-05 7.00693e-05
70 1 9.88752 3.4646 1.56726 4.17345e-06 -6.84776e-05 -1.66442e-05 7.05949e-05
71 1 8.64073 1.88375 3.07281 7.92877e-07 -2.1459e-05 -2.10453e-05 3.0067e-05
72 1 10.5401 2.85753 5.76552 5.24266e-06 -1.13249e-05 -1.38063e-05 1.86105e-05
73 1 8.12694 2.4706 5.34328 3.0384e-05 1.38037e-05 -4.32266e-05 5.46102e-05
74 1 9.91779 3.44204 7.99366 -2.23833e-05 5.56627e-06 -5.88166e-06 2.38032e-05
75 1 8.60481 1.79516 9.45855 2.5328e-05 6.13483e-05 -4.24329e-05 7.87761e-05
76 1 10.4433 2.86284 12.1249 -4.19816e-05 5.31789e-05 1.66708e-05 6.97736e-05
77 1 11.1548 5.11428 0.0856747 -3.0117e-05 5.63544e-06 1.88234e-05 3.59599e-05
78 1 9.36522 4.08097 3.8452 -3.52739e-05 -4.89377e-05 -4.13232e-06 6.04668e-05
79 1 3.45987 7.24937 10.484 -1.56239e-05 -3.07459e-06 -1.59044e-05 2.25058e-05
80 1 9.0219 10.4387 10.6565 2.20115e-05 2.35592e-05 6.2337e-05 7.01815e-05
81 1 5.89837 7.68954 10.9223 -8.35126e-06 -2.33107e-05 8.00055e-05 8.37497e-05
82 1 4.2935 9.38916 4.88716 -6.84315e-06 6.63119e-06 -1.42531e-05 1.71451e-05
83 1 0.186979 1.70078 1.22161 3.38345e-05 -2.93957e-05 -6.97329e-06 4.53597e-05
84 1 2.11581 2.73163 3.95235 -2.34708e-05 5.00963e-05 7.40815e-06 5.58158e-05
85 1 0.874142 1.02454 5.42687 1.98497e-05 3.38606e-05 4.32179e-05 5.8381e-05
86 1 2.67162 2.06119 8.09001 4.44244e-05 -1.92587e-05 -3.55123e-05 6.00462e-05
87 1 1.35717 0.420598 9.56604 3.85494e-05 8.48253e-05 1.28361e-05 9.4054e-05
88 1 3.19378 1.49077 12.2386 8.73454e-06 -2.14176e-05 -2.86473e-05 3.68195e-05
89 1 2.14265 5.59626 11.9459 2.8542e-05 -4.75752e-05 -2.82179e-07 5.54809e-05
90 1 1.47863 3.30108 12.5682 6.55448e-06 3.18545e-05 8.50083e-06 3.36145e-05
91 1 0.931768 3.8959 2.01819 2.00036e-05 -3.32238e-05 -4.10016e-06 3.89971e-05
92 1 1.55762 3.27566 6.1944 3.09387e-05 1.57119e-05 3.61146e-05 5.00832e-05
93 1 3.34836 4.37682 7.48486 1.03918e-05 -1.25539e-05 -3.245e-05 3.63125e-05
94 1 2.06818 2.6804 10.3217 1.6574e-05 1.57706e-05 2.94771e-05 3.73136e-05
95 1 2.82609 7.84738 12.7135 -4.64218e-06 -5.99208e-05 -1.12951e-05 6.11526e-05
96 1 1.58455 6.14029 1.37121 -1.35358e-05 8.0978e-05 4.30183e-06 8.22142e-05
97 1 3.5134 7.17115 4.10198 -6.06435e-05 3.10918e-05 -3.20308e-05 7.53014e-05
98 1 2.2217 5.57082 5.57217 1.1403e-06 7.08184e-06 -2.2343e-05 2.34662e-05
99 1 2.7686 4.97604 3.30536 -3.83079e-05 -2.09025e-05 7.26651e-05 8.47622e-05
100 1 1.63212 6.19147 7.8187 -7.46195e-07 2.54558e-05 -3.85289e-05 4.61847e-05
101 1 2.46091 11.3178 11.5224 3.70984e-05 -2.60382e-05 -2.36268e-05 5.11127e-05
102 1 1.36042 0.577965 3.15878 -2.77479e-05 -4.44565e-06 -2.63411e-06 2.8225e-05
103 1 0.240409 1.62252 7.65636 -1.22957e-05 4.67934e-05 9.39134e-06 4.92849e-05
104 1 11.0371 2.24232 9.88653 1.03393e-05 -4.61718e-06 -3.12792e-05 3.32658e-05
105 1 0.401954 4.5004 4.28487 -1.33536e-05 -2.60819e-05 -1.70494e-05 3.39008e-05
106 1 11.2384 5.09506 6.52441 -3.6653e-05 -4.09431e-05 -3.07325e-05 6.29625e-05
107 1 10.6074 5.66171 2.35391 -4.6076e-05 -1.98518e-05 -4.05302e-05 6.44964e-05
108 1 10.0404 6.3092 10.9921 -3.20964e-05 6.48145e-05 -3.2546e-06 7.23996e-05
109 1 11.3231 8.01526 8.13376 2.89079e-05 2.53826e-05 1.54091e-05 4.14413e-05
110 1 1.97316 11.9026 7.32165 -1.78441e-05 2.03574e-05 3.47016e-05 4.40118e-05
111 1 0.14967 10.8436 4.59416 4.40591e-05 -2.65597e-05 -4.21573e-05 6.65121e-05
112 1 0.95188 3.88082 8.42083 -1.21082e-05 1.36945e-05 -1.86452e-05 2.61111e-05
113 1 1.04864 6.74466 3.64262 -6.70487e-06 3.35406e-05 6.69803e-06 3.48539e-05
114 1 1.15136 9.69626 0.292134 9.59145e-06 1.90255e-05 -6.75159e-05 7.07981e-05
115 1 10.7135 8.62612 10.3761 -1.65016e-05 -3.50963e-06 -1.29676e-05 2.12786e-05
116 1 1.23936 9.65301 6.61795 2.32438e-05 -2.04655e-05 -1.47223e-05 3.42908e-05
117 1 1.72712 9.06821 10.8187 -4.83148e-05 -3.07163e-05 -5.3594e-05 7.84227e-05
118 1 0.640391 10.2662 8.85105 -4.58704e-05 3.71096e-05 4.10318e-05 7.18667e-05
119 1 0.751481 1.06159 11.786 0.000122582 3.72713e-05 -4.5268e-06 0.000128203
120 1 0.351932 4.49505 10.6555 1.11271e-05 1.67826e-05 2.70485e-05 3.37208e-05
121 1 3.5506 10.1272 0.729417 -1.79232e-05 6.76523e-06 -8.79296e-05 8.99924e-05
122 1 2.34003 8.29391 2.16482 -2.32955e-05 -5.28406e-05 -7.85134e-05 9.74636e-05
123 1 5.57142 1.94336 11.2983 2.65865e-05 1.8057e-05 -7.26358e-06 3.29493e-05
124 1 4.56052 6.01438 12.3748 3.7854e-05 -4.58283e-05 2.60327e-05 6.48911e-05
125 1 3.2984 4.37154 1.03867 -4.17615e-05 -4.86373e-05 5.20674e-06 6.43173e-05
126 1 5.21322 5.40737 3.7563 -2.47336e-05 4.89412e-05 1.56063e-05 5.70135e-05
127 1 3.94587 3.75764 5.23788 2.63735e-05 -1.21329e-05 4.03315e-06 2.93093e-05
128 1 5.77882 4.81855 7.91109 -2.97672e-05 -8.08421e-06 5.07874e-06 3.12607e-05
129 1 4.46412 3.16943 9.3887 4.94311e-05 -6.57706e-06 6.29784e-05 8.03304e-05
130 1 3.77758 0.856618 10.0066 1.22151e-05 -2.10049e-05 -2.04249e-05 3.17426e-05
131 1 3.86224 3.77685 11.6159 3.02607e-05 -1.1649e-05 6.36652e-05 7.1447e-05
132 1 4.02759 6.55792 1.81498 -1.07694e-05 4.41726e-05 8.13857e-05 9.32247e-05
133 1 5.96279 7.61807 4.5502 -1.90147e-05 1.78088e-05 3.30372e-05 4.20734e-05
134 1 4.65732 6.00905 6.01544 0.000117662 3.76983e-05 3.79612e-05 0.000129254
135 1 4.06359 6.62955 8.25384 -1.52978e-05 -1.0668e-05 -4.38212e-06 1.9158e-05
136 1 2.7484 4.99106 9.71954 3.54745e-05 2.80463e-05 1.71817e-05 4.83761e-05
137 1 6.00999 10.5336 1.1317 6.88007e-05 7.06203e-06 -4.70365e-05 8.36411e-05
138 1 4.77488 8.73254 2.59923 6.07843e-05 -5.44354e-05 1.17703e-05 8.24408e-05
139 1 5.19044 8.26814 0.319475 5.13235e-05 -8.61119e-06 3.38226e-05 6.20663e-05
140 1 5.06029 2.56269 7.14824 1.19433e-05 -3.38939e-05 2.09772e-05 4.16111e-05
141 1 3.2722 1.44724 5.85891 2.70612e-05 -5.80978e-06 2.63102e-06 2.78026e-05
142 1 4.4933 3.2103 2.96965 -6.15425e-07 -6.93355e-05 1.97141e-05 7.20863e-05
143 1 1.8216 8.93635 4.44289 -3.88965e-05 -2.4884e-05 1.10339e-05 4.74753e-05
144 1 0.506564 7.38114 5.9018 -2.21319e-05 -1.85797e-05 -3.78571e-05 4.76255e-05
145 1 1.02864 6.81071 10.0504 2.61967e-05 -8.1245e-06 1.93102e-05 3.35434e-05
146 1 0.42805 7.42469 12.2814 -2.63575e-05 -1.42193e-05 1.31624e-05 3.27132e-05
147 1 1.8788 12.0345 0.88067 1.79895e-05 -7.8394e-06 4.62664e-05 5.02559e-05
148 1 1.84998 10.4853 2.66167 -0.000319119 6.54144e-05 3.52606e-05 0.000327657
149 1 3.65512 10.0912 7.05591 1.17563e-05 3.34434e-05 -5.99904e-05 6.96816e-05
150 1 2.34311 8.45127 8.57434 -2.22347e-05 -9.56268e-06 2.96667e-05 3.82877e-05
151 1 4.14219 9.50631 11.2519 1.55295e-05 -7.89922e-07 3.30981e-05 3.65688e-05
152 1 2.54885 11.2746 5.03149 1.00656e-06 -3.54442e-05 3.15535e-05 4.7465e-05
153 1 3.05991 10.7046 9.28933 -3.69864e-05 1.3486e-05 -2.62523e-05 4.73186e-05
154 1 6.7046 0.744433 0.395976 1.62342e-05 5.31666e-05 -6.747e-05 8.74211e-05
155 1 3.83432 0.987509 3.61395 -1.64785e-05 -3.74376e-05 -5.23551e-05 6.64392e-05
156 1 4.3871 0.245784 7.76425 3.06608e-05 -4.22568e-05 2.54892e-05 5.80983e-05
157 1 4.88058 11.741 11.9605 -1.12043e-05 -9.23506e-06 -6.1068e-06 1.57517e-05
158 1 5.0137 2.58447 0.711143 -1.75134e-05 -6.86815e-08 5.12505e-07 1.7521e-05
159 1 2.65177 2.12728 1.68096 -2.05804e-05 -1.01727e-05 2.17624e-05 3.16328e-05
160 1 2.94881 7.8103 6.35434 -2.25724e-05 -8.7479e-07 -6.5436e-06 2.35181e-05
161 1 10.3307 12.078 9.12924 -1.93331e-06 7.91848e-05 -4.62448e-05 9.172e-05
