ITEM: TIMESTEP
0
ITEM: NUMBER OF ATOMS
144
ITEM: BOX BOUNDS pp pp pp
0.0000000000000000e+00 1.1400361000000000e+01
0.0000000000000000e+00 1.2098903999999999e+01
0.0000000000000000e+00 1.2816801000000000e+01
ITEM: ATOMS id type x y z fx fy fz v_fmag
1 1 1.92395 0.37163 3.34343 -5.74107e-05 -6.54432e-06 -1.3164e-05 5.9263e-05
2 1 5.99807 4.17287 1.535 -5.39509e-06 4.6264e-05 -3.15331e-05 5.62477e-05
3 1 7.64445 5.07764 3.3923 -2.13313e-05 1.71117e-05 -7.88937e-06 2.84618e-05
4 1 6.23743 3.7305 5.03185 -4.85316e-05 4.14562e-05 -2.84033e-05 6.98619e-05
5 1 7.73682 4.73061 6.75613 2.13252e-06 2.24163e-05 1.63269e-06 2.25767e-05
6 1 6.5255 3.33229 8.55329 3.29095e-06 -1.34044e-05 3.56109e-05 3.81922e-05
7 1 8.08402 4.3146 10.2862 -4.03626e-05 -2.87182e-05 -3.92471e-05 6.31997e-05
8 1 7.19262 5.53355 12.4837 -1.35207e-05 1.99601e-05 5.01349e-06 2.46241e-05
9 1 6.31972 6.71827 1.88019 -8.78713e-06 2.25965e-05 -2.44784e-05 3.44529e-05
10 1 6.57422 6.36563 5.38537 -1.74016e-05 3.23874e-05 -1.82133e-05 4.10303e-05
11 1 8.08146 7.35727 7.09303 2.73096e-05 2.05029e-05 9.9634e-06 3.55732e-05
12 1 6.84037 5.94592 8.89713 3.5795e-05 -2.76948e-05 9.6091e-06 4.62668e-05
13 1 8.39779 6.92041 10.6232 2.15257e-05 -7.52579e-07 -4.01834e-05 4.5592e-05
14 1 7.49962 8.10285 0.0111124 1.37572e-05 1.5875e-05 -2.37538e-05 3.17099e-05
15 1 9.04417 9.02548 1.78198 6.07527e-05 3.06037e-05 -1.09477e-05 6.89009e-05
16 1 7.86305 7.66639 3.64792 2.09257e-05 3.71745e-05 6.18747e-06 4.31058e-05
17 1 6.85309 8.99931 5.72833 2.5389e-05 1.36364e-05 -6.70104e-07 2.88271e-05
18 1 9.3205 2.69429 11.7056 2.54571e-05 -4.52224e-05 2.82793e-05 5.91004e-05
19 1 7.4493 2.10866 6.3748 1.86223e-05 7.70168e-06 -4.25879e-06 2.05972e-05
20 1 4.39229 9.23631 6.15159 1.71988e-05 -3.21726e-05 -1.16119e-05 3.82846e-05
21 1 5.91925 10.2225 7.89051 -2.75485e-06 -5.18236e-05 -2.01665e-05 5.56773e-05
22 1 4.68039 8.80534 9.66777 1.64377e-05 1.13158e-05 2.07192e-05 2.87668e-05
23 1 6.24539 9.77129 11.4185 -3.49372e-06 3.13292e-05 -6.19902e-06 3.21271e-05
24 1 5.62088 10.6083 4.31849 -4.0027e-05 5.10639e-06 -1.90778e-05 4.46341e-05
25 1 7.14623 11.5934 6.06113 2.72535e-05 4.51943e-06 -1.75751e-06 2.76815e-05
26 1 7.77862 1.71302 9.95882 -5.8106e-05 -2.45597e-05 -3.5216e-05 7.22472e-05
27 1 5.00449 11.4523 10.053 -2.39167e-05 1.22256e-05 -8.30963e-06 2.81162e-05
28 1 8.36681 0.818659 4.21091 5.14723e-06 5.17938e-05 2.47135e-05 5.76181e-05
29 1 8.70065 0.520226 7.76039 1.27632e-05 2.74675e-05 -4.30279e-06 3.05921e-05
30 1 9.01294 0.0723096 11.3689 3.3747e-05 2.67102e-05 -6.09253e-06 4.34674e-05
31 1 8.1142 1.33193 0.757571 -3.37454e-05 9.48619e-06 2.13646e-05 4.1051e-05
32 1 7.2144 2.55013 2.94344 -1.61541e-05 2.4947e-05 1.18175e-06 2.9744e-05
33 1 5.90139 1.10797 4.66317 -3.18173e-05 1.41296e-05 -7.09717e-06 3.55296e-05
34 1 2.85779 11.2474 1.18126 -5.34476e-05 -6.27139e-06 8.81882e-06 5.45321e-05
35 1 6.5827 9.31993 2.18021 9.16079e-06 1.34896e-05 -2.68282e-05 3.13949e-05
36 1 8.38852 9.98827 7.46196 -1.51154e-05 1.63085e-05 5.10592e-06 2.28147e-05
37 1 8.70852 9.53437 10.9754 9.64e-06 -1.61613e-05 -3.73822e-05 4.18515e-05
38 1 9.6352 5.29341 12.0333 7.29236e-06 -1.57312e-05 4.69767e-05 5.00745e-05
39 1 8.77349 6.44281 1.47376 1.3995e-05 2.52605e-05 1.92769e-05 3.4721e-05
40 1 10.3134 7.34329 3.2886 1.87126e-06 3.87644e-05 1.11058e-05 4.03673e-05
41 1 10.4955 7.05811 6.53408 5.98837e-05 1.32963e-06 -2.53244e-05 6.50319e-05
42 1 9.31071 5.69998 8.44576 -2.65307e-06 -3.3141e-06 -3.43951e-05 3.4656e-05
43 1 10.5422 4.07755 9.85523 2.33711e-05 -2.55331e-05 6.47062e-06 3.52138e-05
44 1 0.379227 2.45055 11.2654 -2.78102e-05 -2.31041e-05 1.9891e-05 4.12657e-05
45 1 10.8569 6.67668 10.183 4.00427e-05 -1.05665e-05 6.40596e-06 4.19059e-05
46 1 9.32647 8.80108 5.30784 -6.9135e-06 1.98407e-05 -1.21362e-05 2.42639e-05
47 1 10.8598 9.75408 7.02064 6.08572e-06 -3.52154e-06 8.02688e-06 1.06709e-05
48 1 9.62838 8.31773 8.79321 2.76106e-05 1.865e-05 -3.03903e-06 3.34575e-05
49 1 11.1644 9.29862 10.5197 -3.25565e-05 -8.336e-06 1.04366e-06 3.3623e-05
50 1 10.5561 10.0956 3.44684 -3.50267e-05 5.89737e-05 -3.78208e-06 6.86955e-05
51 1 9.93186 10.9841 9.16741 1.48032e-05 1.50369e-05 3.57092e-05 4.14776e-05
52 1 9.94267 7.88179 12.3736 3.48912e-05 -6.58461e-06 -4.30904e-06 3.57676e-05
53 1 7.1582 8.56761 9.24936 1.51997e-05 -2.39998e-05 1.19124e-05 3.08047e-05
54 1 8.99948 3.11189 8.09586 -4.77068e-05 2.86753e-06 -1.30101e-06 4.78106e-05
55 1 10.0976 4.78729 3.02584 -2.213e-05 1.68667e-05 3.28365e-05 4.30402e-05
56 1 8.08589 10.3501 3.88307 5.93387e-05 -1.981e-05 1.70831e-05 6.48487e-05
57 1 9.62129 11.3742 5.62493 -3.24741e-05 1.09358e-05 -3.858e-05 5.16001e-05
58 1 7.47108 11.2093 9.61896 -3.486e-05 2.3154e-06 -4.1952e-05 5.45944e-05
59 1 5.32692 10.9836 0.765197 2.91265e-05 -1.19729e-06 3.43938e-05 4.50857e-05
60 1 10.8509 0.569825 3.76391 -1.79732e-05 6.2855e-06 1.09622e-05 2.19707e-05
61 1 11.1332 0.345426 7.28979 2.58017e-06 -1.49976e-05 1.7067e-05 2.28663e-05
62 1 10.0798 4.58361 6.04588 7.3737e-07 -1.09211e-05 1.0464e-05 1.51429e-05
63 1 9.3176 11.7157 2.05112 3.96167e-05 -3.26887e-05 8.47603e-06 5.20565e-05
64 1 9.86399 2.02761 5.78315 -1.5928e-05 -3.49425e-05 1.4756e-05 4.1139e-05
65 1 10.2347 1.48914 9.51499 6.6135e-06 1.86935e-05 -1.20511e-05 2.32037e-05
66 1 0.0684975 11.9355 10.9132 -1.3321e-05 2.8394e-05 2.19583e-05 3.82863e-05
67 1 10.549 1.0532 0.278565 -5.87329e-05 7.81089e-06 -3.11773e-05 6.69522e-05
68 1 11.178 6.25906 0.975919 -4.40351e-05 -7.29871e-06 -1.72556e-05 4.78551e-05
69 1 8.45383 3.9311 1.11835 2.33665e-05 4.3402e-05 -8.13956e-06 4.99598e-05
70 1 9.68191 2.31278 2.53769 -8.37991e-06 4.51273e-05 -2.43743e-06 4.59634e-05
71 1 5.03403 8.36779 0.430574 4.26557e-05 2.63134e-05 -2.36492e-05 5.54183e-05
72 1 5.93152 7.1624 11.0633 2.29976e-05 3.1378e-06 6.53168e-06 2.41122e-05
73 1 4.36248 6.17998 9.31463 1.12013e-05 -2.75581e-06 5.30959e-06 1.26987e-05
74 1 4.38474 0.134659 2.92018 1.01203e-05 -6.51023e-06 5.07236e-05 5.21314e-05
75 1 3.74298 1.00312 8.64122 -6.15918e-06 2.53737e-05 -1.61354e-05 3.06938e-05
76 1 4.09663 0.56557 12.2208 -2.25502e-05 7.38264e-06 -6.96303e-06 2.47285e-05
77 1 3.16583 1.78393 1.54971 -2.51343e-05 1.96327e-05 2.34749e-05 3.96011e-05
78 1 2.20282 3.00528 3.6864 -3.40217e-05 7.32301e-06 -3.93713e-05 5.25471e-05
79 1 0.913978 1.7045 5.42384 -5.90843e-06 5.7908e-06 7.19452e-06 1.09638e-05
80 1 2.19431 0.0509877 6.89157 -2.8039e-05 3.72104e-06 -9.74324e-06 2.99159e-05
81 1 2.45731 2.65262 7.19159 -6.79417e-07 1.46234e-05 2.12812e-06 1.4793e-05
82 1 4.41454 3.19095 12.5739 -2.59188e-05 3.08274e-05 1.7077e-05 4.37463e-05
83 1 10.8667 3.67098 0.626035 -6.59293e-05 4.51644e-07 -3.78342e-05 7.60151e-05
84 1 2.53962 5.64042 4.03994 -1.83227e-05 -3.26497e-06 -7.33037e-05 7.56295e-05
85 1 1.1326 4.29324 5.67946 -1.87392e-05 2.02274e-06 4.0924e-05 4.50557e-05
86 1 2.77895 5.19802 7.53676 3.23438e-05 5.56092e-06 1.31463e-05 3.53535e-05
87 1 1.58441 3.83737 9.40486 -1.09371e-06 -1.39191e-05 2.01395e-05 2.45059e-05
88 1 2.8455 2.20855 10.8252 -1.61959e-05 -5.16038e-05 3.56038e-05 6.47525e-05
89 1 3.15581 4.81028 11.1621 7.41088e-06 -1.34125e-05 3.38711e-06 1.56936e-05
90 1 0.691122 11.1197 5.18869 -2.50692e-06 6.92468e-06 1.98637e-05 2.11849e-05
91 1 0.982858 10.7559 8.71843 -4.11903e-06 -4.58907e-05 1.69321e-05 4.90878e-05
92 1 1.27739 1.26807 9.06068 8.43034e-06 -3.15696e-05 1.60578e-06 3.27153e-05
93 1 1.61882 0.803345 12.6392 3.58024e-05 -2.82158e-05 3.74423e-05 5.89905e-05
94 1 0.695554 2.01366 1.97873 2.8288e-05 -2.49707e-05 3.83979e-05 5.38344e-05
95 1 0.00355101 2.92808 7.59798 -1.29085e-05 6.31643e-06 3.15681e-05 3.46853e-05
96 1 1.93665 3.42506 0.17464 1.6047e-05 -3.66644e-05 4.8295e-06 4.03126e-05
97 1 2.25157 6.03868 0.518494 -1.62404e-05 -2.01063e-05 -4.13839e-05 4.87919e-05
98 1 1.30596 10.2606 12.2696 2.74542e-05 -1.49395e-05 4.57069e-06 3.15882e-05
99 1 1.04025 4.64034 2.31564 -1.26367e-05 -1.00278e-05 3.45559e-05 3.8136e-05
100 1 0.693025 5.05638 11.6024 -2.07359e-05 -1.29175e-05 2.74478e-06 2.4584e-05
101 1 0.410201 8.55224 4.86085 3.61906e-05 -2.48438e-05 3.2817e-05 5.48081e-05
102 1 0.662811 8.03898 8.31417 4.11371e-06 -6.37063e-06 -2.01457e-05 2.15257e-05
103 1 0.998437 7.65796 11.9298 -1.62016e-05 -4.80089e-05 -9.26244e-07 5.06774e-05
104 1 0.0763802 8.85071 1.3114 -3.19033e-05 -1.13265e-05 -1.53136e-05 3.71567e-05
105 1 1.63079 9.87643 3.01067 2.95831e-05 -2.61125e-05 -3.13826e-06 3.95837e-05
106 1 0.323182 5.4398 7.95341 3.61022e-05 -1.03873e-05 -1.67109e-05 4.11159e-05
107 1 1.32773 7.26228 2.697 4.73761e-05 -5.05098e-05 -1.37958e-05 7.06121e-05
108 1 2.87564 8.26298 4.40863 -1.06721e-05 -3.5147e-05 -2.89725e-05 4.67826e-05
109 1 1.5626 6.82075 6.12831 2.33428e-05 5.35996e-05 -1.85154e-05 6.13239e-05
110 1 4.96329 2.36119 6.81814 -3.12037e-05 1.74931e-05 -3.09007e-05 4.72708e-05
111 1 5.31496 1.95935 10.3986 -7.13385e-06 4.15018e-06 1.99182e-05 2.15604e-05
112 1 6.8771 2.94901 12.1545 -2.86403e-06 2.16057e-05 1.82796e-05 2.84456e-05
113 1 4.73171 5.78606 0.0956758 -2.14365e-05 2.35938e-05 -1.35992e-05 3.46573e-05
114 1 3.50369 4.40479 1.90407 -4.2255e-05 -2.39702e-05 -1.84608e-05 5.19698e-05
115 1 5.0511 5.37545 3.65151 2.6378e-05 2.77335e-05 -8.52902e-06 3.92133e-05
116 1 3.42654 1.37894 5.08161 -4.02623e-06 -2.68911e-05 3.96941e-05 4.8114e-05
117 1 3.72594 3.99546 5.42027 4.37092e-05 -9.10162e-06 4.41669e-05 6.28017e-05
118 1 4.04533 3.58486 8.97609 7.33687e-06 9.69715e-06 2.73294e-05 2.99125e-05
119 1 5.62122 4.56066 10.7264 2.11524e-05 -1.24377e-05 2.38598e-05 3.42259e-05
120 1 3.81376 7.00976 2.25368 -7.68972e-06 -2.45929e-05 -1.74733e-05 3.1133e-05
121 1 5.35049 7.992 3.99018 1.35655e-05 7.97832e-06 -4.11578e-05 4.40641e-05
122 1 4.08019 6.60829 5.7768 8.37791e-05 -2.35026e-05 1.37569e-05 8.80941e-05
123 1 5.61119 7.58702 7.52204 -1.81736e-05 -1.18364e-05 -5.55864e-06 2.23893e-05
124 1 5.27336 4.96615 7.16769 -3.00488e-05 4.17054e-06 -1.28725e-05 3.29549e-05
125 1 4.69683 2.76264 3.29497 -2.06939e-05 1.92385e-05 1.00817e-05 3e-05
126 1 5.64817 1.56587 1.16043 5.60087e-05 -1.14007e-05 5.75009e-05 8.10759e-05
127 1 6.56654 0.322721 11.816 -9.57612e-06 2.55849e-05 3.31242e-06 2.75184e-05
128 1 3.12883 7.80504 7.9113 3.33496e-05 -1.32698e-05 -2.11823e-06 3.59551e-05
129 1 1.89991 6.42192 9.73406 2.33374e-05 -1.07481e-05 -5.27647e-06 2.62297e-05
130 1 3.46208 7.41158 11.4899 1.86674e-07 -1.95963e-06 8.92204e-06 9.13662e-06
131 1 2.55196 8.63313 0.854999 -3.49115e-05 -3.25324e-05 -3.38889e-05 5.85288e-05
132 1 4.10268 9.61821 2.582 3.27584e-05 -2.97131e-05 -2.09036e-05 4.89177e-05
133 1 1.93046 9.49568 6.58592 1.67978e-05 -6.24934e-07 7.96342e-06 1.86003e-05
134 1 3.45009 10.4862 8.30656 1.28568e-05 4.71692e-06 -7.52468e-06 1.56259e-05
135 1 2.21049 9.04819 10.0725 -1.07143e-05 -7.84334e-06 2.35349e-05 2.70223e-05
136 1 3.77253 10.0175 11.8356 2.1098e-06 1.69828e-05 1.6234e-05 2.35884e-05
137 1 3.15615 10.8616 4.75331 2.05148e-05 -3.21649e-05 -2.18773e-06 3.82129e-05
138 1 4.67434 11.8517 6.48982 -1.90901e-05 -5.60377e-05 -4.8636e-05 7.66167e-05
139 1 2.53163 11.6985 10.4701 1.08003e-05 -4.80344e-06 3.47983e-05 3.6751e-05
140 1 0.388517 11.4816 1.60979 -3.65843e-06 -8.39767e-06 3.72465e-05 3.83563e-05
141 1 6.84656 11.9741 2.48584 -6.35616e-05 1.78824e-05 -3.6074e-05 7.52409e-05
142 1 6.22508 0.737836 8.21682 2.03466e-05 -2.53044e-05 -6.71178e-06 3.31564e-05
143 1 7.79416 10.7139 0.353334 -8.19127e-07 3.33357e-05 -6.02655e-06 3.3886e-05
144 1 10.2455 10.4857 12.7212 -2.08876e-05 2.24474e-06 -4.11692e-06 2.14075e-05
