ITEM: TIMESTEP
0
ITEM: NUMBER OF ATOMS
147
ITEM: BOX BOUNDS pp pp pp
0.0000000000000000e+00 1.1400361000000000e+01
0.0000000000000000e+00 1.2098903999999999e+01
0.0000000000000000e+00 1.2816801000000000e+01
ITEM: ATOMS id type x y z fx fy fz v_fmag
1 1 1.38173 1.93285 0.555406 1.90365e-05 3.36457e-05 -2.0969e-06 3.87146e-05
2 1 7.04574 0.328815 3.55608 -2.2661e-05 -1.19288e-05 -1.01936e-05 2.75631e-05
3 1 5.01723 0.410669 7.67583 -1.15908e-05 1.56231e-06 1.96694e-09 1.16956e-05
4 1 8.75774 1.29126 1.88522 -1.68205e-07 -3.73086e-06 6.16782e-06 7.21038e-06
5 1 8.3811 2.35807 4.27518 -5.62154e-06 1.96202e-05 -1.06042e-05 2.30001e-05
6 1 6.68816 1.38644 5.96469 3.72905e-05 1.77453e-05 -2.3928e-05 4.77286e-05
7 1 6.04138 1.65299 9.72851 1.1383e-05 -3.43465e-05 6.59264e-06 3.67794e-05
8 1 5.77914 11.2912 9.86518 2.86652e-05 4.3491e-05 -1.30132e-05 5.36889e-05
9 1 6.78835 0.455587 11.8779 1.90058e-05 5.70468e-05 -1.20613e-05 6.13272e-05
10 1 9.37442 3.60999 6.2836 -1.99701e-05 1.90859e-05 4.91966e-06 2.80585e-05
11 1 7.71322 2.63003 8.00678 2.17665e-05 5.27373e-05 3.09678e-07 5.70535e-05
12 1 9.80117 3.43261 10.9879 4.48127e-05 1.41335e-06 7.03634e-07 4.48405e-05
13 1 8.16771 2.47727 12.6161 5.69543e-06 1.57384e-05 1.1674e-05 2.04063e-05
14 1 10.417 5.81194 2.46891 -2.65723e-06 -1.03874e-06 2.88473e-05 2.89881e-05
15 1 8.5815 4.8563 4.12844 2.07382e-05 -2.78581e-05 -3.09902e-05 4.65461e-05
16 1 7.65494 3.59375 2.16461 2.30962e-05 -1.20521e-05 3.62536e-06 2.63027e-05
17 1 7.7674 11.229 5.70082 1.21102e-05 -3.6711e-05 1.53608e-05 4.1597e-05
18 1 7.46729 11.3176 1.16918 -1.15388e-05 -9.03306e-06 1.81564e-06 1.47661e-05
19 1 6.55703 10.0493 12.0168 -2.88292e-05 -3.58089e-05 1.82247e-05 4.94524e-05
20 1 5.94087 5.19616 3.68599 1.05299e-05 -2.68372e-05 1.10023e-05 3.08571e-05
21 1 8.26853 5.84156 6.64292 1.98197e-05 -4.74929e-06 2.07936e-05 2.91162e-05
22 1 6.61827 4.86742 8.32081 1.50403e-06 -6.29517e-06 -1.98883e-05 2.0915e-05
23 1 6.28803 5.91776 10.7509 5.35017e-05 -3.61552e-05 2.07499e-05 6.78247e-05
24 1 5.95272 6.93543 0.408405 -2.0849e-05 1.15032e-06 3.0898e-06 2.11081e-05
25 1 7.46042 8.77224 1.25891 -1.85462e-05 -3.21789e-05 -2.00405e-05 4.22027e-05
26 1 7.44631 7.03388 4.53831 4.55648e-05 -4.9821e-06 6.51657e-06 4.62973e-05
27 1 7.18327 8.04482 7.05131 -1.44915e-05 5.12253e-05 -3.67838e-05 6.47076e-05
28 1 5.50232 7.09514 8.68738 -4.72899e-05 4.05957e-05 -2.14923e-05 6.59262e-05
29 1 7.69649 7.86557 11.6158 -3.82629e-05 8.19025e-06 3.63929e-05 5.34376e-05
30 1 9.83208 11.0929 1.66786 -9.9713e-06 3.62394e-05 2.64904e-05 4.59833e-05
31 1 8.11072 10.1447 3.32894 1.84389e-05 1.09812e-05 -7.20863e-06 2.26394e-05
32 1 6.40503 9.20086 4.96833 -1.99471e-05 -2.95596e-05 1.46702e-06 3.56905e-05
33 1 8.53333 10.0305 7.8384 -5.02717e-05 1.17036e-05 1.5282e-06 5.16387e-05
34 1 6.88085 9.06072 9.51619 -2.80848e-05 8.02497e-06 -1.17645e-05 3.14891e-05
35 1 10.7047 5.55533 7.08443 -2.12091e-05 4.50309e-06 1.46643e-05 2.61753e-05
36 1 7.67894 6.12845 2.07034 -1.99651e-05 -3.8795e-05 2.22351e-05 4.897e-05
37 1 9.03931 4.61575 8.77616 1.34889e-05 -2.95204e-05 1.49754e-05 3.57445e-05
38 1 7.02473 4.74596 0.00798062 -1.88753e-05 8.86389e-06 -6.66226e-06 2.18913e-05
39 1 9.21673 0.218632 12.3371 -1.06503e-06 9.26187e-06 -8.31284e-06 1.24908e-05
40 1 10.0726 3.31425 2.59448 -6.89482e-06 4.76322e-05 2.63507e-05 5.48701e-05
41 1 10.1385 2.38936 8.46978 2.86679e-05 9.28574e-06 2.27874e-05 3.77801e-05
42 1 11.0849 4.57781 4.57649 -2.58429e-06 3.99961e-06 -2.79512e-05 2.83539e-05
43 1 9.38301 7.07833 0.484477 -8.1201e-06 1.11901e-05 1.37485e-05 1.94981e-05
44 1 0.384415 7.67631 3.3458 -1.95097e-05 -5.32815e-06 -1.32564e-05 2.41816e-05
45 1 8.46873 1.41652 10.1752 -4.4716e-05 -8.62001e-06 -8.80371e-06 4.63824e-05
46 1 10.4119 6.61616 9.52368 2.79027e-05 2.3961e-05 1.56663e-06 3.68123e-05
47 1 0.178846 11.8218 12.7127 1.3209e-06 4.42321e-05 -7.2228e-07 4.42577e-05
48 1 10.6441 10.7686 10.6401 -2.4058e-05 6.3049e-06 1.2652e-05 2.79037e-05
49 1 9.86094 12.0422 8.56257 -4.59863e-05 5.02296e-06 -4.36859e-07 4.62619e-05
50 1 0.0246597 4.3647 9.30524 9.81214e-06 -3.71122e-06 -3.1125e-06 1.09425e-05
51 1 1.04555 6.50347 5.39798 -4.10986e-05 9.69698e-06 2.63467e-05 4.97723e-05
52 1 0.90784 10.8808 2.05141 6.71937e-05 -5.99662e-06 -3.30259e-05 7.5111e-05
53 1 11.3147 8.74337 5.73904 -8.19584e-06 2.60294e-05 -4.01606e-06 2.75832e-05
54 1 9.11467 1.14889 6.41234 1.26299e-06 6.92883e-06 -2.71504e-05 2.8049e-05
55 1 10.814 2.10035 4.68935 -3.54839e-06 -3.22554e-05 -1.63239e-05 3.63245e-05
56 1 11.1648 1.0638 2.21412 -3.71399e-05 -1.15972e-05 -3.68021e-05 5.35562e-05
57 1 9.18041 7.95553 2.92754 -6.75285e-06 1.57617e-05 5.37338e-05 5.64035e-05
58 1 9.9635 6.77186 4.98226 -2.24562e-05 1.16431e-06 -6.94409e-06 2.35341e-05
59 1 9.64656 7.80573 7.46271 6.77656e-06 1.12892e-05 2.05021e-05 2.43661e-05
60 1 7.96255 6.85474 9.10077 6.07338e-05 6.13072e-06 3.1203e-05 6.85551e-05
61 1 11.1605 8.11192 11.9492 -0.00016555 -2.43501e-05 0.000133366 0.000213977
62 1 10.947 8.91252 1.39114 1.35156e-05 -5.14315e-05 -3.71708e-05 6.48809e-05
63 1 10.5676 9.91653 3.72374 1.01961e-05 -1.88738e-05 3.15725e-05 3.81707e-05
64 1 8.85747 8.97683 5.40328 -5.66969e-06 -4.77851e-05 5.2411e-06 4.84048e-05
65 1 10.9671 9.86927 8.02794 9.16313e-06 -3.60075e-05 8.0826e-05 8.8957e-05
66 1 9.3529 8.78959 9.95788 9.44927e-06 1.20671e-05 -1.6368e-05 2.24235e-05
67 1 9.1836 9.73756 12.4492 -1.51899e-05 -2.73085e-05 3.22518e-05 4.49073e-05
68 1 10.1951 11.0235 6.03536 -4.4043e-05 2.83392e-05 2.41304e-05 5.76643e-05
69 1 8.21726 11.0329 10.3203 -8.06334e-06 7.67218e-06 -2.54878e-05 2.7812e-05
70 1 9.46488 0.100157 3.9739 2.96027e-05 3.75298e-05 4.22185e-05 6.37746e-05
71 1 7.44013 0.169296 8.13852 7.63903e-07 1.82283e-07 4.19833e-05 4.19907e-05
72 1 8.73777 5.69368 11.1787 -1.65134e-05 1.62871e-05 -2.12616e-06 2.32913e-05
73 1 0.450885 8.68706 9.85543 5.71707e-05 2.30782e-05 -0.000121063 0.000135858
74 1 5.7008 2.69828 12.1684 6.37128e-05 3.96575e-06 -6.53807e-06 6.417e-05
75 1 5.29189 2.86202 7.57685 3.41439e-05 -4.26204e-05 2.33117e-05 5.9378e-05
76 1 3.31777 10.6003 2.35342 -2.74986e-05 2.51139e-05 5.33803e-06 3.76215e-05
77 1 0.505474 11.9684 4.33276 -1.83959e-06 1.35033e-05 6.11708e-05 6.26704e-05
78 1 3.71685 10.5347 6.83214 -1.33673e-05 5.11895e-06 4.65532e-05 4.8704e-05
79 1 2.08241 9.65015 8.42924 -8.51696e-05 -1.15964e-05 2.32369e-05 8.90409e-05
80 1 1.64189 10.5851 11.0152 3.02615e-06 7.7898e-06 8.6046e-06 1.19949e-05
81 1 2.61261 11.7925 0.293499 1.53193e-05 -3.94718e-05 6.23343e-06 4.27967e-05
82 1 1.91814 9.28956 0.309543 -3.69941e-05 -1.99309e-05 -2.94672e-05 5.13237e-05
83 1 2.95529 11.6795 4.73054 -2.42389e-05 -2.2977e-06 -6.34949e-05 6.8003e-05
84 1 2.21878 0.861194 2.68526 -2.43026e-05 -1.80049e-06 -1.02482e-05 2.64364e-05
85 1 0.145261 0.88806 6.82259 -2.55757e-05 4.01549e-05 6.00083e-06 4.79849e-05
86 1 3.89993 1.75125 1.0137 -3.42216e-06 -2.80714e-05 -3.94166e-05 4.85117e-05
87 1 3.5594 2.99486 3.41056 -1.17045e-05 -6.41869e-06 4.9696e-06 1.4244e-05
88 1 1.85196 1.8462 5.10394 -1.00759e-05 -1.29462e-05 2.96633e-06 1.66712e-05
89 1 1.16565 2.15783 8.89231 2.40105e-05 2.04384e-05 2.31617e-05 3.91242e-05
90 1 0.897064 11.8003 8.93997 1.31068e-05 -2.74831e-05 1.32929e-05 3.32236e-05
91 1 2.70501 8.38786 10.7365 4.52462e-05 -6.31281e-05 -4.11271e-06 7.77772e-05
92 1 0.698602 7.52283 7.7363 -1.131e-05 3.15722e-05 5.56971e-05 6.50145e-05
93 1 2.36559 8.50294 6.11059 -4.23448e-06 -3.78216e-05 -1.13948e-05 3.97272e-05
94 1 1.11065 3.10629 3.01738 -2.17873e-06 -4.30358e-05 2.17998e-06 4.3146e-05
95 1 10.8936 1.16622 10.6388 2.52902e-05 1.52187e-05 1.91381e-05 3.51777e-05
96 1 9.39778 4.54184 0.521395 2.49405e-05 -8.82086e-06 1.81004e-05 3.2054e-05
97 1 2.11066 4.30915 5.09278 -2.58524e-06 -8.11066e-07 -3.61349e-05 3.62364e-05
98 1 0.404587 3.3315 6.73571 -2.10112e-05 1.2385e-05 4.17065e-06 2.47438e-05
99 1 2.48594 4.11836 9.73676 -1.51285e-05 2.9055e-06 -1.05867e-05 1.8692e-05
100 1 0.779974 3.22581 11.3844 5.02048e-05 -1.82149e-05 1.87215e-05 5.65933e-05
101 1 0.947933 6.80398 0.93248 -4.76396e-05 -6.72569e-06 1.20991e-05 4.961e-05
102 1 0.39092 4.27345 0.940462 -2.48353e-05 4.35649e-05 -2.65901e-05 5.67602e-05
103 1 3.30175 6.19806 6.28233 8.55387e-05 -1.35592e-05 1.62395e-05 8.81161e-05
104 1 1.66309 5.24581 7.70235 3.78652e-05 -4.56582e-08 1.96353e-05 4.26535e-05
105 1 1.38338 6.38844 10.022 4.79556e-05 7.06096e-06 1.33863e-05 5.02871e-05
106 1 11.0992 5.60054 11.7484 5.2158e-05 3.00846e-06 1.28292e-05 5.37968e-05
107 1 2.76491 8.08979 2.36727 -7.48149e-06 -3.27365e-05 1.13441e-05 3.54449e-05
108 1 1.62791 9.66286 4.06314 2.17518e-05 -2.1203e-05 3.61707e-05 4.72338e-05
109 1 1.90819 0.945259 11.0136 2.11203e-05 1.48251e-05 -8.1253e-06 2.70531e-05
110 1 7.39126 3.66197 10.4622 1.37316e-05 5.17775e-05 1.06078e-05 5.46076e-05
111 1 2.1095 5.23254 12.0758 -3.12503e-05 -6.17734e-07 -4.49486e-05 5.4748e-05
112 1 4.50411 4.12402 5.47822 1.64556e-05 -5.90255e-06 -2.31673e-05 2.90232e-05
113 1 4.05522 10.3207 11.5613 3.04903e-05 2.33059e-05 1.34718e-05 4.06732e-05
114 1 5.0525 11.5951 0.72586 1.81736e-05 -2.63488e-05 -2.92452e-05 4.33569e-05
115 1 5.36108 11.4513 5.19854 3.27552e-05 -1.7732e-05 -2.25752e-05 4.35542e-05
116 1 3.34992 11.5673 9.39005 -2.39327e-05 -2.42513e-05 -6.46633e-06 3.46801e-05
117 1 4.63084 0.599491 3.11126 -1.09588e-05 -5.96117e-05 -1.54181e-05 6.25409e-05
118 1 2.5861 0.645935 7.23756 -6.92757e-06 6.94407e-06 1.62646e-05 1.89934e-05
119 1 4.44091 9.34163 9.06262 4.01233e-05 4.83685e-05 -5.62334e-06 6.30953e-05
120 1 6.35883 1.51854 1.44617 1.13212e-05 9.94057e-06 -1.25302e-05 1.95957e-05
121 1 4.26633 1.62749 5.51287 -4.17771e-05 3.84312e-05 1.02965e-05 5.76914e-05
122 1 3.60757 1.91575 9.3037 -9.0737e-06 1.1915e-05 1.7706e-06 1.50809e-05
123 1 4.34469 0.700662 11.4351 -3.1407e-05 -3.00557e-05 -2.67301e-06 4.35533e-05
124 1 4.56737 4.96969 12.4264 6.98961e-05 -5.5826e-06 4.21912e-05 8.18335e-05
125 1 5.27704 3.78199 1.67018 -3.3574e-05 3.4862e-06 2.57618e-06 3.38527e-05
126 1 6.93639 3.8803 5.84139 2.2169e-05 -9.10135e-06 -1.31012e-05 2.73119e-05
127 1 5.96724 2.63476 3.83572 -1.77551e-05 -8.04883e-06 2.19438e-05 2.93522e-05
128 1 6.108 10.2751 7.38803 -1.97987e-05 1.97226e-05 -2.76818e-05 3.93351e-05
129 1 4.04265 9.31846 4.38375 4.10973e-05 -2.38251e-05 -4.53843e-05 6.56989e-05
130 1 5.73885 10.3663 2.80779 4.7233e-06 -5.96094e-05 -1.51887e-05 6.16951e-05
131 1 2.85401 3.10591 7.1858 3.14903e-05 -2.6518e-05 -1.85826e-05 4.51681e-05
132 1 4.95888 3.87311 10.1085 2.29438e-05 -7.60845e-07 2.1276e-05 3.12996e-05
133 1 3.22746 2.93772 11.7716 -9.20388e-06 -1.54405e-05 1.80948e-05 2.55057e-05
134 1 4.16736 5.97135 1.9322 -2.5388e-05 -3.72132e-05 -2.19105e-06 4.51018e-05
135 1 1.78589 5.6026 2.98588 -1.55938e-05 -1.04113e-05 -5.76443e-05 6.06171e-05
136 1 5.79138 6.10674 6.19198 -4.30115e-05 3.88539e-06 -7.42734e-06 4.38207e-05
137 1 4.18591 5.02956 8.11577 -1.93993e-06 8.08415e-05 -7.68491e-05 0.000111557
138 1 3.83369 6.1496 10.4062 -4.96524e-05 -2.48156e-05 -3.65024e-05 6.64349e-05
139 1 3.35091 7.2215 12.7944 1.20566e-05 1.20206e-05 -3.95073e-05 4.30195e-05
140 1 5.74616 7.81481 2.84712 -2.8589e-06 2.41975e-05 -1.40377e-05 2.81203e-05
141 1 3.92696 6.80942 4.17912 -1.19265e-05 -6.40275e-06 -3.78962e-06 1.4057e-05
142 1 4.73287 8.28189 6.61611 1.3278e-05 3.04446e-05 1.10982e-05 3.50192e-05
143 1 3.0516 7.37086 8.39984 4.21412e-05 -2.12623e-05 -4.21267e-05 6.32663e-05
144 1 5.18226 8.1244 11.1675 1.78033e-06 4.13141e-05 -1.27002e-05 4.32588e-05
145 1 4.72613 9.08612 0.854344 7.49909e-06 3.82324e-05 -6.55632e-05 7.62659e-05
146 1 2.79625 3.99174 1.26661 1.31779e-06 -7.53267e-06 -1.44474e-06 7.78235e-06
147 1 1.2599 10.7839 6.38843 -1.42345e-05 1.65648e-05 -8.49152e-06 2.34333e-05
