ITEM: TIMESTEP
0
ITEM: NUMBER OF ATOMS
156
ITEM: BOX BOUNDS pp pp pp
0.0000000000000000e+00 1.1396901000000000e+01
0.0000000000000000e+00 1.2680864000000000e+01
0.0000000000000000e+00 1.2228524999999999e+01
ITEM: ATOMS id type x y z fx fy fz v_fmag
1 1 2.66782 1.21031 1.93342 -1.35491e-06 -3.73056e-06 2.21535e-05 2.25063e-05
2 1 9.88708 12.4828 2.17894 -6.67155e-05 5.78462e-06 6.89413e-06 6.73198e-05
3 1 8.20192 0.134194 6.23146 2.35475e-05 1.65552e-05 4.17055e-05 5.06745e-05
4 1 6.69628 0.387057 10.2346 4.74673e-05 1.03807e-06 3.29324e-06 4.75927e-05
5 1 7.99614 1.26035 12.1055 5.54216e-05 1.44719e-06 4.28942e-05 7.00968e-05
6 1 9.24903 2.1684 1.76153 -4.81971e-05 1.47965e-05 -4.41844e-05 6.70385e-05
7 1 8.70103 1.14472 4.00651 -1.12145e-05 -3.00393e-06 -2.34485e-05 2.61652e-05
8 1 9.91186 2.09091 5.88919 6.33498e-05 -5.95574e-05 -4.98327e-05 0.000100218
9 1 7.07735 1.49448 8.0175 2.25996e-05 8.40089e-06 7.67651e-06 2.5303e-05
10 1 8.38135 2.35738 9.88794 -4.86901e-05 1.21406e-05 1.10607e-06 5.01931e-05
11 1 8.5928 4.54711 1.33869 3.39259e-06 3.83787e-05 3.21914e-05 5.02068e-05
12 1 8.08013 3.50145 3.58604 1.57361e-05 -2.4424e-05 2.58877e-05 3.89144e-05
13 1 9.20472 4.56114 5.45354 7.87343e-06 4.26906e-05 -1.94162e-06 4.3454e-05
14 1 8.76962 3.4684 7.67635 -5.97794e-05 -3.98289e-05 2.41477e-05 7.57828e-05
15 1 10.0459 4.33569 9.55843 -2.84191e-05 2.83243e-05 -1.79405e-06 4.01638e-05
16 1 7.26498 3.7012 11.6783 -5.04098e-05 8.41926e-08 1.48134e-05 5.25413e-05
17 1 5.00439 11.0937 10.5762 6.88875e-05 7.06065e-05 -1.63581e-05 9.99918e-05
18 1 5.39214 12.2045 8.36431 7.11669e-07 -1.84328e-05 -1.22617e-06 1.84873e-05
19 1 6.50871 10.8596 6.57403 3.17753e-05 -1.25561e-05 1.34088e-05 3.67032e-05
20 1 6.93541 11.925 4.34523 5.28292e-06 -1.44217e-05 -4.42355e-05 4.6826e-05
21 1 4.83395 4.18502 11.5949 -2.16638e-05 3.86798e-05 -2.64689e-05 5.16338e-05
22 1 5.24881 7.52488 0.939281 -1.54704e-05 3.05861e-05 -3.59414e-05 4.96651e-05
23 1 8.31147 8.23042 2.91928 3.08027e-05 1.81627e-05 2.39221e-05 4.30228e-05
24 1 5.49191 6.32871 3.10724 -0.000318698 0.000171704 1.30875e-05 0.000362245
25 1 8.52201 7.03839 5.09047 -1.99435e-05 -5.43834e-05 -3.62762e-05 6.83466e-05
26 1 5.61844 6.40918 7.21325 -4.77363e-05 -3.01287e-06 1.66679e-05 5.06523e-05
27 1 6.88712 7.28094 9.12734 -4.20221e-05 3.47848e-06 -1.83048e-05 4.59677e-05
28 1 7.71568 7.01288 0.977034 -1.52327e-06 3.2622e-06 -1.10153e-05 1.15887e-05
29 1 6.44681 6.1829 11.3101 4.18016e-05 -4.98701e-06 -4.18811e-05 5.93824e-05
30 1 8.09565 10.5977 2.52242 1.3568e-05 3.02068e-06 -9.38566e-06 1.67722e-05
31 1 7.5905 9.54902 4.77272 5.98371e-05 -4.78303e-05 3.04929e-05 8.24502e-05
32 1 8.93889 10.3769 6.65789 1.34723e-05 2.50966e-05 2.10354e-05 3.54095e-05
33 1 7.32589 8.37962 6.94485 -4.81641e-06 -2.01012e-05 -6.87497e-06 2.17835e-05
34 1 6.16002 9.73658 8.76895 0.00010313 -2.98711e-06 -2.07615e-05 0.000105242
35 1 5.73197 8.63775 10.9737 -2.14986e-06 -2.92186e-05 1.89429e-05 3.48882e-05
36 1 6.28507 11.9772 0.22082 6.13152e-05 -2.68762e-06 -6.65861e-05 9.05565e-05
37 1 6.98887 9.50007 0.663541 -1.37577e-05 3.98956e-05 -4.38555e-05 6.08625e-05
38 1 7.6133 4.82542 9.48475 -4.66767e-05 -1.24568e-05 -4.11316e-05 6.34484e-05
39 1 10.4766 7.76989 2.96224 6.10422e-05 -1.26619e-07 -3.51971e-05 7.04628e-05
40 1 10.96 6.55031 5.12482 9.09275e-06 -5.27961e-05 -1.64402e-05 5.60392e-05
41 1 10.4179 0.775517 12.1892 3.17085e-05 -4.04577e-05 -9.93905e-06 5.23549e-05
42 1 11.001 4.07172 1.42491 5.02552e-05 5.55805e-05 7.53333e-05 0.000106254
43 1 10.4795 3.03639 3.67209 7.6721e-06 2.70302e-06 3.63602e-05 3.7259e-05
44 1 11.1942 2.97598 7.76088 -3.3995e-05 -3.46132e-05 -1.67373e-05 5.13212e-05
45 1 9.69135 3.22108 11.7627 -8.11818e-05 -3.38596e-05 3.85014e-05 9.60172e-05
46 1 10.2096 6.48408 1.01865 -2.2685e-05 -1.93252e-05 -3.87353e-05 4.88722e-05
47 1 9.97552 5.39897 3.25469 -5.49449e-05 -2.75774e-05 1.37081e-05 6.2987e-05
48 1 10.4686 5.44045 7.34772 -1.24225e-05 2.1598e-05 5.41011e-05 5.95628e-05
49 1 0.336793 6.30118 9.26259 -1.76859e-05 1.50647e-05 -2.40861e-05 3.34646e-05
50 1 1.47321 9.65529 2.68641 -1.1128e-05 -0.000103342 -6.25205e-06 0.000104127
51 1 1.07006 8.59719 4.9385 6.43336e-05 -6.17496e-05 -6.39605e-05 0.00010974
52 1 11.0145 8.75518 8.9165 3.70425e-05 -3.66496e-05 -2.91289e-05 5.96979e-05
53 1 10.5759 7.66366 11.1084 -1.11544e-05 -1.62847e-06 2.16087e-05 2.43723e-05
54 1 0.895329 12.0063 2.26311 -4.07513e-05 -3.84731e-05 3.28107e-05 6.49415e-05
55 1 0.361928 10.9773 4.51306 2.89931e-05 -1.85168e-05 4.35039e-05 5.54623e-05
56 1 10.8097 1.86758 9.97369 -8.92331e-06 6.8026e-06 1.4771e-05 1.85495e-05
57 1 9.50528 1.00116 8.10465 -3.79111e-05 -1.98902e-05 2.79706e-05 5.11393e-05
58 1 11.1083 0.66981 4.09021 5.64048e-05 -1.80495e-05 8.15021e-05 0.000100747
59 1 11.1278 10.992 0.390073 -1.82873e-06 -1.88248e-05 -8.01895e-06 2.05432e-05
60 1 8.04197 5.92354 7.28078 1.24079e-05 -3.45441e-05 -2.39655e-05 4.3836e-05
61 1 9.31059 6.79238 9.19291 -1.2227e-05 -4.69089e-05 1.6719e-05 5.12784e-05
62 1 8.88849 5.68705 11.3735 -3.61047e-06 1.34629e-06 3.45041e-06 5.17236e-06
63 1 9.3989 8.99345 0.761674 -2.28786e-05 2.84552e-05 -4.97519e-05 6.17121e-05
64 1 10.4915 10.1394 2.60375 -2.33165e-05 -4.93881e-05 2.00411e-05 5.81764e-05
65 1 10.0126 9.08242 4.85656 6.74333e-05 -5.38474e-05 -5.1334e-05 0.000100409
66 1 11.3769 9.88383 6.73818 8.29113e-05 -3.72833e-06 1.34885e-05 8.4084e-05
67 1 7.7014 5.86428 3.17881 0.000134485 4.90727e-05 1.62573e-05 0.000144078
68 1 9.75706 7.88742 7.00755 1.54312e-05 2.30091e-05 3.29207e-05 4.30269e-05
69 1 8.156 8.15254 11.0412 7.51154e-06 2.18162e-05 -8.71694e-06 2.46649e-05
70 1 8.70738 11.483 0.306818 8.87001e-07 3.6938e-05 1.72758e-05 4.0788e-05
71 1 9.34581 11.4569 4.42829 -6.49565e-06 -2.35193e-05 6.56864e-06 2.52685e-05
72 1 7.82236 11.7144 8.45017 -1.90925e-05 6.76325e-06 3.81225e-05 4.31693e-05
73 1 9.12393 12.5744 10.3214 -1.1481e-05 -5.00689e-06 1.45827e-05 1.92234e-05
74 1 7.42863 10.6013 10.661 -4.16477e-06 2.90088e-05 1.29213e-06 2.93347e-05
75 1 10.6275 12.3242 6.31763 1.05212e-05 -7.27973e-06 3.0291e-05 3.28822e-05
76 1 8.58909 9.24679 8.84282 -4.07593e-05 1.41504e-05 -1.33106e-05 4.51522e-05
77 1 6.34561 3.96138 7.59106 -4.16775e-05 1.36532e-05 -2.85354e-05 5.23229e-05
78 1 6.78648 5.0642 5.35842 2.31299e-06 3.56043e-05 5.92436e-05 6.91579e-05
79 1 5.6817 3.96065 3.50144 -3.3845e-05 -9.43459e-05 4.6729e-05 0.00011059
80 1 3.29764 11.5235 2.35137 -1.80744e-05 3.2248e-05 1.56025e-05 4.01255e-05
81 1 2.77472 10.4897 4.59888 -3.24997e-05 1.86675e-05 4.72901e-05 6.03412e-05
82 1 1.65688 11.83 6.40403 6.82762e-05 -3.18599e-05 -4.72431e-06 7.54918e-05
83 1 2.42893 9.38008 6.81359 1.96422e-05 -4.35174e-05 -2.62129e-05 5.44674e-05
84 1 1.2922 10.723 8.61676 5.26394e-05 -3.79759e-05 8.11314e-06 6.54133e-05
85 1 0.879403 9.61213 10.8284 -1.42223e-05 6.27942e-06 -1.57872e-05 2.21572e-05
86 1 1.44161 0.285398 0.046397 3.5136e-05 1.43347e-05 -2.24226e-05 4.40772e-05
87 1 2.11937 0.187012 4.17681 7.48782e-05 -3.50091e-05 7.60101e-05 0.000112294
88 1 0.536157 0.507119 8.19177 9.33061e-07 2.87547e-05 -2.03612e-05 3.5246e-05
89 1 0.153963 12.081 10.4064 4.2943e-05 -2.20823e-05 -2.86282e-05 5.61365e-05
90 1 5.07522 0.734025 2.01761 -4.51429e-05 3.94479e-05 5.45892e-05 8.10802e-05
91 1 3.35655 1.10528 6.0632 6.58208e-06 9.51495e-06 -7.37583e-05 7.46602e-05
92 1 1.84062 1.37461 10.0602 -1.77989e-06 1.01442e-05 1.87825e-05 2.14209e-05
93 1 3.14641 2.23833 11.9344 5.90832e-06 -8.89316e-06 1.39981e-05 1.76052e-05
94 1 4.42979 3.10315 1.5956 9.94114e-06 -6.19348e-06 2.48857e-05 2.75043e-05
95 1 2.15 10.4981 0.476932 -4.66386e-05 -1.57371e-05 -2.30111e-05 5.43353e-05
96 1 1.59659 7.16978 11.1798 5.59938e-05 -1.38535e-05 1.55428e-05 5.97394e-05
97 1 2.04064 8.26135 8.99113 3.90069e-05 5.66474e-06 -3.23726e-05 5.1006e-05
98 1 0.781394 7.39313 7.07422 -1.00375e-05 6.15186e-05 6.59133e-05 9.07185e-05
99 1 0.936074 1.59632 5.97694 1.06312e-06 -4.20259e-06 -6.04266e-06 7.43678e-06
100 1 0.259824 1.69329 1.84664 -2.66031e-06 -8.22022e-06 3.57847e-05 3.6813e-05
101 1 2.01655 3.58437 1.51051 -2.73826e-05 1.06012e-06 7.45714e-05 7.94469e-05
102 1 1.48427 2.55556 3.76022 -2.14778e-05 -1.02349e-05 2.86095e-05 3.72096e-05
103 1 2.64691 3.57021 5.63412 -2.1216e-05 -2.49034e-05 -3.06917e-05 4.48585e-05
104 1 1.08369 3.84011 9.63612 -2.91996e-05 1.33004e-05 4.35191e-06 3.23798e-05
105 1 11.3413 5.18394 11.4403 -3.1403e-06 2.62048e-05 6.84501e-06 2.72655e-05
106 1 3.88939 2.07632 3.84531 2.90621e-05 6.77754e-05 -1.30639e-06 7.37551e-05
107 1 1.30094 5.96572 1.08512 -6.20452e-06 -5.68877e-05 -2.93265e-05 6.4302e-05
108 1 1.97342 6.06251 5.18476 -4.98469e-05 4.28348e-06 2.49531e-05 5.59082e-05
109 1 0.227976 4.06483 5.54565 1.58518e-05 5.20828e-05 2.57711e-06 5.45027e-05
110 1 1.49768 4.95035 7.42441 2.30542e-07 -1.66225e-05 -1.41255e-06 1.6684e-05
111 1 0.406133 8.50015 0.840585 2.86467e-05 3.86102e-05 1.58783e-05 5.0631e-05
112 1 3.81222 9.16032 2.77028 4.94839e-05 2.88693e-05 -9.8926e-05 0.000114317
113 1 1.20772 7.28314 3.01155 -0.00023673 8.7268e-05 5.50312e-05 0.000258234
114 1 3.55574 8.08293 5.00944 3.95122e-05 -2.21382e-05 1.83438e-05 4.88652e-05
115 1 0.912182 4.90969 3.33691 -3.30082e-05 -6.64742e-05 1.30813e-05 7.53623e-05
116 1 5.06712 3.07944 5.71685 -5.38732e-05 7.09714e-06 -1.90997e-05 5.75977e-05
117 1 2.22296 2.48156 7.84601 -5.87562e-05 -1.39506e-05 9.52014e-06 6.11354e-05
118 1 3.51838 3.34279 9.71689 3.07835e-05 4.02244e-06 -2.17064e-05 3.78811e-05
119 1 3.72696 10.2266 8.69505 -9.30553e-06 -1.30939e-06 -1.37071e-05 1.6619e-05
120 1 3.30523 9.12102 10.9064 9.84028e-06 9.8237e-06 -2.58997e-05 2.93961e-05
121 1 3.86252 12.4717 0.134327 6.13915e-05 3.02173e-05 -5.50382e-05 8.78135e-05
122 1 4.52709 12.391 4.26247 2.37955e-05 6.23876e-05 -5.08137e-05 8.39075e-05
123 1 2.96396 0.0138147 8.27842 -5.87551e-05 -1.87717e-05 1.3687e-05 6.31812e-05
124 1 2.57983 11.5867 10.4912 3.8758e-05 -1.51529e-05 3.29264e-06 4.17449e-05
125 1 7.48166 0.266938 2.09857 -1.41158e-05 -3.65394e-06 6.95217e-05 7.10343e-05
126 1 4.88268 8.87624 6.88142 6.48615e-05 -6.03804e-05 -4.39093e-05 9.88981e-05
127 1 5.77811 0.620203 6.14688 -1.9242e-05 -1.31467e-05 -8.30062e-05 8.62155e-05
128 1 5.57209 1.74682 12.0208 4.38533e-05 3.75992e-05 -1.65118e-05 6.00787e-05
129 1 6.84053 2.63412 1.6788 -3.50149e-05 5.37364e-05 4.45658e-05 7.81009e-05
130 1 6.29473 1.61125 3.92573 -6.67559e-05 3.27091e-05 -4.74307e-06 7.44898e-05
131 1 7.48916 2.58539 5.80286 -1.27607e-05 7.46581e-06 1.24172e-06 1.48363e-05
132 1 4.64984 1.98812 7.93068 -6.97649e-05 2.19215e-05 1.88898e-05 7.55283e-05
133 1 5.95088 2.84793 9.80198 -4.84019e-06 2.50324e-05 -5.34303e-06 2.60499e-05
134 1 6.18508 5.00961 1.25072 1.68354e-05 -2.90845e-05 -9.23028e-05 9.82301e-05
135 1 4.26841 0.880491 10.1473 -1.96383e-05 4.66855e-05 2.37269e-05 5.593e-05
136 1 10.2546 11.22 8.53561 2.33925e-05 -2.10244e-05 -1.42195e-05 3.4517e-05
137 1 4.0826 11.3401 6.48965 4.23769e-06 1.38464e-06 4.43017e-05 4.45255e-05
138 1 5.69704 11.057 2.43774 1.62934e-05 1.52824e-05 -5.18778e-06 2.29334e-05
139 1 0.720087 2.73259 11.848 -2.94565e-06 1.69167e-05 8.16342e-06 1.90129e-05
140 1 2.39489 4.6794 11.5148 3.38826e-05 -1.23342e-05 4.4026e-05 5.69074e-05
141 1 3.75973 5.47811 1.16807 -1.10917e-05 1.35136e-05 -7.19836e-05 7.40761e-05
142 1 3.28667 4.41885 3.4208 -2.1267e-05 1.23863e-05 4.79527e-05 5.38996e-05
143 1 4.3775 5.56966 5.26157 2.11555e-05 -1.89165e-05 -4.06922e-05 4.96109e-05
144 1 3.92245 4.45721 7.50496 -4.27332e-05 -4.81232e-05 -5.80543e-05 8.66734e-05
145 1 5.18475 5.31534 9.41088 -2.80967e-05 -2.16497e-07 -5.99769e-05 6.62321e-05
146 1 5.1835 10.0122 4.68476 2.73304e-05 -5.44861e-05 -8.15453e-06 6.14994e-05
147 1 2.75972 5.80731 9.33706 -5.80042e-05 -1.94244e-05 1.3492e-05 6.26405e-05
148 1 6.0947 8.69472 2.84585 -8.70436e-05 -3.11305e-06 -7.26375e-06 8.74016e-05
149 1 3.3316 6.78793 3.0695 0.000317529 -1.23951e-05 -9.95385e-06 0.000317927
150 1 6.05113 7.55338 5.05237 -4.8436e-06 -1.16432e-05 -1.78646e-05 2.1867e-05
151 1 3.19897 6.89859 7.14579 -4.26936e-05 -2.04968e-05 1.08666e-05 4.85895e-05
152 1 4.46366 7.76959 9.06163 -5.94482e-05 -1.13725e-05 -6.65045e-05 8.99237e-05
153 1 4.01695 6.67485 11.2474 1.5684e-06 -2.23823e-05 5.88915e-05 6.30209e-05
154 1 4.56969 10.0016 0.569726 6.64736e-05 5.47365e-05 -1.4103e-05 8.72567e-05
155 1 2.81463 8.01038 0.904207 6.46325e-05 4.59561e-05 -3.87325e-05 8.82583e-05
156 1 9.85178 10.1055 10.7475 -9.11453e-06 5.36498e-05 7.50013e-05 9.26637e-05
