ITEM: TIMESTEP
0
ITEM: NUMBER OF ATOMS
148
ITEM: BOX BOUNDS pp pp pp
0.0000000000000000e+00 1.1400361000000000e+01
0.0000000000000000e+00 1.2098903999999999e+01
0.0000000000000000e+00 1.2816801000000000e+01
ITEM: ATOMS id type x y z fx fy fz v_fmag
1 1 2.69723 12.0955 3.90363 2.08605e-05 -3.58816e-06 -2.59212e-05 3.34655e-05
2 1 5.58496 6.11252 2.93816 -3.86818e-06 -2.60109e-05 1.11213e-07 2.62972e-05
3 1 7.65445 7.63378 5.44466 -7.74022e-08 -8.29867e-07 4.72326e-05 4.72399e-05
4 1 6.45183 6.31064 7.31454 9.14203e-06 -1.84138e-05 5.99876e-05 6.34126e-05
5 1 8.21765 7.85648 9.67533 5.56694e-06 3.93035e-05 -7.00356e-06 4.03089e-05
6 1 7.078 6.49677 11.5658 -4.26086e-05 3.08999e-05 4.89787e-05 7.18972e-05
7 1 7.59921 9.84129 1.54879 4.00761e-05 -5.28773e-06 -3.50885e-05 5.35281e-05
8 1 6.76502 7.48873 1.06999 -2.05856e-05 1.86485e-05 2.78172e-05 3.93107e-05
9 1 6.38695 8.47895 3.39909 -2.51743e-05 -2.28704e-05 -1.95848e-05 3.92475e-05
10 1 6.97318 8.67864 7.63962 1.64199e-05 -1.11001e-05 4.6557e-05 5.06002e-05
11 1 6.60575 9.70134 9.98001 2.4169e-05 3.03321e-05 4.44142e-06 3.90372e-05
12 1 5.46143 8.35386 11.8485 -4.34416e-05 -1.18456e-05 -1.14327e-06 4.50422e-05
13 1 8.256 0.0839545 1.94052 3.34225e-05 2.07608e-05 2.60857e-05 4.72074e-05
14 1 6.90384 10.8314 3.77502 6.64906e-05 7.73654e-06 3.2182e-05 7.42733e-05
15 1 6.49395 11.8484 6.09864 1.37533e-05 2.44686e-05 -2.66975e-05 3.87379e-05
16 1 8.14925 10.0004 5.79205 5.13175e-05 3.81364e-05 -2.95503e-05 7.0435e-05
17 1 6.50894 4.16164 11.169 -2.85747e-05 -3.24016e-06 1.08595e-05 3.07399e-05
18 1 7.75848 5.48819 9.38106 -4.4485e-06 -1.33931e-05 -3.95142e-05 4.19587e-05
19 1 8.11435 4.49766 6.969 5.34922e-05 -8.81985e-06 4.49697e-05 7.04378e-05
20 1 2.85903 10.0064 7.81985 -3.29845e-05 -1.93813e-05 -9.20703e-06 3.93495e-05
21 1 2.53181 11.0376 10.2244 -4.1948e-05 -3.39678e-05 3.43695e-06 5.40857e-05
22 1 1.3876 9.72896 12.162 -6.26776e-05 2.79008e-05 -2.06583e-06 6.86382e-05
23 1 7.0213 0.929298 12.7451 -1.60035e-05 4.87625e-05 2.37091e-06 5.13762e-05
24 1 10.1007 1.61032 4.30542 1.42386e-05 2.87065e-05 -1.90335e-05 3.72703e-05
25 1 8.59159 1.31366 8.5959 -6.93121e-06 -2.11045e-05 1.67502e-06 2.22766e-05
26 1 7.65734 3.27137 0.361707 3.15252e-06 -1.68809e-05 -2.09012e-05 2.70511e-05
27 1 6.424 1.89224 2.21751 1.94447e-05 3.18023e-05 1.82922e-06 3.73207e-05
28 1 8.4791 3.46435 4.64316 3.71391e-05 -1.70935e-05 -1.23618e-05 4.2712e-05
29 1 9.75423 2.6482 6.65691 3.28215e-05 3.63146e-05 -1.4444e-06 4.89702e-05
30 1 9.39072 3.72615 8.99139 -3.07184e-05 2.69611e-05 -1.47288e-05 4.34449e-05
31 1 5.76195 1.81522 10.7315 -1.94228e-05 -2.01234e-06 -1.41368e-05 2.41069e-05
32 1 8.38612 5.63225 0.699533 -9.89239e-06 -3.23494e-05 3.17218e-06 3.39765e-05
33 1 7.20627 4.27023 2.63569 -3.79443e-05 1.41692e-05 9.76606e-06 4.16643e-05
34 1 6.84321 5.3033 4.96058 -3.48993e-05 2.13113e-05 9.38689e-06 4.19553e-05
35 1 5.32068 10.5201 7.95134 7.02564e-06 -5.00034e-05 -1.07533e-05 5.16269e-05
36 1 4.02293 11.3234 5.93061 2.63049e-05 -3.84878e-05 3.35719e-05 5.74485e-05
37 1 4.98008 11.5485 10.2943 -2.83737e-05 6.68648e-06 1.29227e-05 3.18868e-05
38 1 9.46585 1.37333 0.123883 -2.85337e-06 4.18377e-05 1.87332e-06 4.19767e-05
39 1 8.8781 8.9642 3.58446 1.15039e-05 4.97909e-05 2.50547e-05 5.6914e-05
40 1 10.545 10.5108 5.90892 2.01196e-05 1.66107e-05 1.1175e-05 2.8383e-05
41 1 9.37759 9.18841 7.7988 -4.31946e-06 5.32929e-06 3.22302e-05 3.29522e-05
42 1 9.04864 10.1485 10.1316 -4.04635e-05 4.56219e-06 -2.17277e-05 4.61541e-05
43 1 7.90442 8.80888 12.0085 -7.6758e-06 -1.02451e-05 3.80044e-05 4.01025e-05
44 1 0.247766 11.8573 3.82945 5.38043e-05 3.51951e-05 -4.79098e-05 8.01807e-05
45 1 10.1275 10.4084 1.7754 -1.38162e-05 -5.01869e-06 -1.63889e-05 2.20152e-05
46 1 9.31709 11.3339 3.9673 -5.1081e-05 -2.90962e-05 -2.04667e-05 6.22474e-05
47 1 7.76471 11.0433 8.12605 2.90137e-05 5.138e-06 9.72645e-06 3.1029e-05
48 1 7.43228 12.0576 10.4529 2.92336e-06 4.39479e-05 -1.79268e-05 4.75535e-05
49 1 6.29238 10.6865 12.305 -2.2931e-05 -6.73353e-06 -6.49323e-06 2.47656e-05
50 1 10.4967 7.138 3.16053 -5.89225e-06 -6.44713e-06 1.65343e-05 1.86994e-05
51 1 10.3447 9.25063 12.0922 -3.45034e-05 -2.92122e-05 -1.94243e-06 4.52505e-05
52 1 10.2086 11.4764 8.24036 3.56843e-05 3.97539e-05 -6.51713e-05 8.42676e-05
53 1 8.93348 0.28502 6.26324 -1.45253e-05 -5.47684e-05 2.35911e-05 6.13768e-05
54 1 9.49601 6.87239 11.5853 -1.99573e-05 -8.53933e-06 -2.99185e-05 3.69639e-05
55 1 10.6378 8.17021 9.68469 -1.11759e-05 -1.35819e-05 -8.483e-06 1.95277e-05
56 1 8.96435 6.80382 7.52711 3.65088e-05 2.43522e-05 7.53486e-06 4.45275e-05
57 1 9.86442 0.360701 10.6078 1.15943e-05 3.6292e-05 7.51465e-06 3.88331e-05
58 1 11.2572 2.8845 2.29714 -3.65538e-05 3.21569e-06 4.81575e-05 6.05447e-05
59 1 8.87295 2.42421 2.33076 4.99088e-05 -8.76106e-06 -2.77002e-05 5.7749e-05
60 1 10.927 3.96654 4.69131 -1.63449e-05 9.02223e-06 1.77282e-05 2.57458e-05
61 1 11.3784 0.693587 6.24812 3.50584e-05 -4.11969e-05 2.72859e-05 6.05871e-05
62 1 8.2129 2.35448 10.9074 1.94483e-05 -4.07637e-06 4.49018e-06 2.03719e-05
63 1 10.8323 6.13634 0.77468 8.03607e-06 2.43665e-05 -4.2304e-05 4.94765e-05
64 1 9.66088 4.7815 2.67825 1.28147e-05 1.34649e-05 1.65511e-05 2.48889e-05
65 1 9.30384 5.82026 5.05631 2.86441e-05 -1.55689e-05 -5.0432e-05 6.00522e-05
66 1 10.5841 5.04291 7.05866 2.01716e-05 6.60098e-06 -4.37938e-05 4.86658e-05
67 1 11.0869 5.08539 11.0949 5.5501e-06 -1.07381e-05 1.6132e-05 2.01582e-05
68 1 10.033 3.8085 0.243893 -3.17277e-05 -2.43306e-05 3.52032e-06 4.01375e-05
69 1 9.21748 8.00362 1.18183 -2.32872e-05 9.74272e-06 -1.92561e-05 3.17492e-05
70 1 8.03465 6.63521 3.05985 -3.35076e-05 -2.2438e-05 1.8537e-05 4.43829e-05
71 1 10.1794 8.11179 5.67218 -2.70517e-06 9.3391e-06 -2.03667e-05 2.25685e-05
72 1 3.84007 10.2193 12.2234 -2.76259e-05 -3.40455e-05 -6.00727e-06 4.42535e-05
73 1 4.35824 10.3539 3.49444 2.7629e-05 -3.16898e-05 1.24494e-05 4.38474e-05
74 1 5.7402 11.6684 1.76207 5.023e-06 -3.30784e-05 2.39482e-05 4.11452e-05
75 1 3.01935 7.88005 11.7435 -1.88689e-05 -1.45196e-05 -2.84755e-07 2.38105e-05
76 1 4.855 1.59048 6.4012 2.86482e-05 -2.7319e-05 -1.75282e-05 4.3293e-05
77 1 4.47955 2.63206 8.72328 1.46465e-05 -3.97001e-07 3.78698e-06 1.51333e-05
78 1 0.89238 0.780931 10.5904 -4.88436e-05 2.59808e-06 -3.50678e-07 4.89139e-05
79 1 3.50085 4.68916 0.468802 -5.88472e-05 3.21995e-05 1.2219e-05 6.81843e-05
80 1 2.30979 3.31696 2.36938 4.93991e-05 5.52503e-05 8.6052e-06 7.46118e-05
81 1 1.96364 4.33274 4.70356 -1.542e-05 2.43728e-05 -4.52854e-06 2.91945e-05
82 1 3.57628 2.39561 4.36244 3.43986e-05 -1.03669e-05 -3.77452e-05 5.21098e-05
83 1 3.2214 3.43717 6.69753 -1.87073e-05 2.37827e-05 2.28539e-05 3.79193e-05
84 1 1.59979 3.18539 10.9247 -9.0163e-06 -2.64678e-05 -6.65968e-06 2.87435e-05
85 1 1.87341 6.59979 0.849133 1.36175e-05 1.74735e-05 2.21318e-06 2.22634e-05
86 1 0.701953 5.25972 2.75927 1.98152e-05 3.85877e-05 1.236e-05 4.51046e-05
87 1 2.79413 6.62512 5.12823 2.70726e-05 -5.09286e-06 -4.95345e-05 5.66792e-05
88 1 1.59785 5.30347 7.02453 1.86332e-05 -3.41871e-05 1.42466e-05 4.14599e-05
89 1 3.34409 6.86658 9.34798 -1.12736e-05 1.8393e-05 2.7242e-06 2.17444e-05
90 1 2.7957 4.49045 9.02871 -2.09597e-05 -2.47584e-05 -2.94009e-05 4.37801e-05
91 1 1.42784 1.00731 1.9922 7.68642e-05 -1.41111e-05 5.35435e-05 9.47319e-05
92 1 2.82317 2.33908 0.0975237 3.13085e-05 -1.85747e-05 -7.46675e-06 3.71617e-05
93 1 3.6849 0.259429 8.28996 2.56386e-05 -8.17089e-06 -6.05507e-07 2.69159e-05
94 1 11.0164 1.68002 8.59455 2.76215e-05 -5.95809e-05 -4.29113e-05 7.84488e-05
95 1 0.423946 1.90217 12.8114 -8.44468e-05 5.50305e-07 -4.27674e-05 9.46605e-05
96 1 1.1468 2.0228 4.315 7.70022e-06 -1.01938e-05 -3.82569e-06 1.33358e-05
97 1 2.40683 1.06851 6.26713 -1.04935e-05 -4.67069e-05 -2.13435e-05 5.24137e-05
98 1 2.04431 2.11143 8.61379 9.01452e-06 5.90626e-05 1.06132e-05 6.06819e-05
99 1 1.05938 4.26961 0.366689 3.23357e-05 1.17422e-05 1.82126e-05 3.89253e-05
100 1 0.780257 3.00834 6.63218 5.90911e-05 2.66401e-05 -9.43046e-06 6.5501e-05
101 1 0.400794 3.9931 8.93241 6.24981e-05 -1.37919e-05 3.62952e-05 7.3577e-05
102 1 10.6 2.69192 10.8662 -3.29503e-05 -2.46965e-05 4.62216e-05 6.19038e-05
103 1 0.38096 6.34907 5.14203 1.20823e-05 2.89023e-05 -4.25936e-06 3.16144e-05
104 1 0.83076 6.38916 9.17082 -2.1396e-06 -4.8136e-05 -1.65437e-05 5.09445e-05
105 1 0.256115 8.48388 1.27464 -2.69321e-05 -2.4606e-05 -8.19206e-06 3.73885e-05
106 1 0.0246072 9.42214 3.82388 -2.95965e-05 5.38129e-06 -2.35344e-05 3.8194e-05
107 1 11.1878 11.5941 12.6617 -4.38529e-05 -6.92743e-06 -3.05856e-05 5.39124e-05
108 1 5.20861 0.551743 4.08777 4.2447e-05 5.64217e-05 3.19811e-05 7.7511e-05
109 1 2.18561 5.55957 11.2519 -2.80512e-05 2.73386e-05 -2.9361e-05 4.89524e-05
110 1 2.75925 8.91112 1.30612 5.69967e-06 -2.964e-05 2.49242e-05 3.91438e-05
111 1 1.57171 7.64423 3.22608 1.61364e-05 -3.32019e-06 -6.16956e-06 1.75918e-05
112 1 3.16067 9.01864 5.3651 4.75522e-05 -3.22745e-05 5.38201e-05 7.87366e-05
113 1 4.40389 4.76951 4.8077 2.55618e-05 3.30018e-05 -8.86302e-07 4.17529e-05
114 1 5.65855 3.96677 6.83785 2.65386e-05 2.38901e-05 3.4086e-05 4.93649e-05
115 1 5.2438 4.98811 9.15749 3.07771e-06 7.09831e-06 -1.94716e-05 2.09524e-05
116 1 4.03642 3.66095 11.0265 1.40183e-05 7.33043e-06 2.654e-05 3.08969e-05
117 1 4.32752 7.00813 0.913203 -2.74793e-05 2.8025e-05 2.82775e-05 4.83749e-05
118 1 3.14099 5.65541 2.79829 8.96214e-06 -9.48328e-06 -3.27503e-05 3.52539e-05
119 1 5.18937 7.13747 5.27614 -1.74319e-05 -1.78567e-05 -6.54113e-06 2.57977e-05
120 1 3.99196 5.80967 7.14481 1.06613e-05 -1.91084e-05 -2.85886e-06 2.20674e-05
121 1 5.81306 7.34508 9.5177 -1.23828e-05 -2.05666e-05 1.1005e-05 2.64089e-05
122 1 4.65633 6.01124 11.3949 -2.68526e-05 2.58378e-05 -2.11974e-05 4.28717e-05
123 1 5.15945 9.3393 1.35732 8.00127e-06 -1.63874e-05 4.33442e-05 4.70243e-05
124 1 3.98591 7.96194 3.24674 -6.51301e-06 -8.38524e-06 -1.84946e-05 2.13256e-05
125 1 5.68002 9.51119 5.58596 1.44057e-05 4.56157e-06 2.36587e-05 2.80725e-05
126 1 4.50832 8.18642 7.46096 3.98351e-06 -4.82278e-06 3.40209e-05 3.45912e-05
127 1 4.16298 9.19826 9.84101 -4.07842e-05 -3.2307e-05 2.27277e-06 5.20794e-05
128 1 4.7463 3.73095 2.48565 -1.37916e-05 -9.52899e-06 8.78275e-06 1.89247e-05
129 1 0.0844719 10.5392 10.1775 -4.33203e-07 -5.249e-06 -3.32203e-05 3.36353e-05
130 1 5.94105 5.13575 0.62528 7.86298e-06 1.8942e-05 -1.77672e-06 2.05859e-05
131 1 6.93469 3.15818 8.85176 -2.13942e-05 2.39652e-05 5.60944e-06 3.26115e-05
132 1 1.99497 7.69612 7.26132 1.47731e-05 -3.23132e-06 7.99913e-06 1.71077e-05
133 1 1.7097 8.69438 9.75263 -1.52316e-05 4.58275e-06 -4.32341e-05 4.60672e-05
134 1 0.562541 7.39824 11.6718 -3.96921e-05 -1.21178e-06 -2.09162e-05 4.48823e-05
135 1 2.20161 12.0468 12.6552 -4.87777e-05 4.22161e-06 -1.98456e-05 5.28293e-05
136 1 1.29735 10.6938 1.89676 -7.7635e-05 9.97084e-05 -1.31849e-05 0.000127054
137 1 1.53742 10.7936 5.77399 3.17453e-05 3.58796e-06 -7.0063e-06 3.27067e-05
138 1 0.396366 9.4703 7.76371 2.43849e-06 -1.87032e-05 -6.97019e-05 7.22088e-05
139 1 1.23952 11.8423 8.1997 -4.96183e-05 -5.42572e-05 -3.12955e-05 7.99076e-05
140 1 4.59048 0.459003 12.5829 -2.02406e-05 -6.47321e-06 4.18652e-05 4.69497e-05
141 1 7.66321 1.08992 4.23494 7.74368e-07 -3.07602e-05 -3.15481e-05 4.40689e-05
142 1 6.13868 0.789486 8.42308 -3.65721e-06 1.70131e-05 4.07066e-05 4.42702e-05
143 1 5.24174 2.78641 0.212675 -5.38326e-07 -1.791e-05 2.5572e-05 3.12247e-05
144 1 3.91908 1.28561 2.05915 1.25434e-05 4.08131e-05 9.81116e-06 4.38098e-05
145 1 6.02764 2.92849 4.51987 -1.29694e-05 -3.65237e-05 -3.0964e-05 4.96081e-05
146 1 7.30659 2.12803 6.54832 2.78715e-05 -2.93502e-05 1.10384e-05 4.19535e-05
147 1 3.30392 1.30251 10.6264 2.51447e-05 -4.06676e-06 1.27263e-05 2.84738e-05
148 1 8.73316 11.1284 12.4826 -1.5146e-06 -2.64696e-05 2.20169e-05 3.44626e-05
