ITEM: TIMESTEP
0
ITEM: NUMBER OF ATOMS
141
ITEM: BOX BOUNDS pp pp pp
0.0000000000000000e+00 1.1396901000000000e+01
0.0000000000000000e+00 1.2680864000000000e+01
0.0000000000000000e+00 1.2228524999999999e+01
ITEM: ATOMS id type x y z fx fy fz v_fmag
1 1 0.423314 8.05136 5.80517 -4.67499e-05 3.05936e-05 -7.66233e-05 9.48296e-05
2 1 9.61604 5.74193 9.44522 -3.57751e-05 -5.76855e-07 -3.03078e-05 4.68909e-05
3 1 7.24258 4.50055 7.48304 2.52646e-06 -4.63219e-05 1.00123e-05 4.74589e-05
4 1 8.14506 5.79497 5.26743 -1.84745e-05 -3.9655e-05 1.68007e-05 4.68624e-05
5 1 6.77844 4.35292 3.64229 2.17379e-05 -4.87419e-05 -1.52721e-06 5.33914e-05
6 1 7.68122 5.64957 1.4949 -3.34522e-05 -1.22629e-05 -1.50445e-05 3.86751e-05
7 1 6.40097 4.0689 12.1676 4.72686e-05 2.30688e-05 3.62214e-05 6.3863e-05
8 1 7.8897 2.06424 11.2945 4.1375e-06 2.40845e-05 -2.50638e-06 2.45655e-05
9 1 8.7683 3.34748 9.19157 3.78819e-06 6.06426e-06 2.149e-05 2.26483e-05
10 1 7.44592 1.91619 7.46577 6.34028e-06 1.42065e-05 7.47686e-06 1.72606e-05
11 1 8.33769 3.23348 5.33408 1.88108e-06 -2.80444e-05 1.6849e-05 3.27707e-05
12 1 7.03616 1.78051 3.65927 3.43378e-05 -2.03516e-07 -5.11762e-07 3.43422e-05
13 1 7.95962 3.05368 1.57742 1.81503e-06 -4.81415e-06 2.82467e-05 2.87114e-05
14 1 9.00618 0.793248 9.12698 6.30151e-06 1.16647e-05 1.70484e-05 2.15968e-05
15 1 8.55695 0.656548 5.33343 4.69192e-06 -2.40888e-05 3.36537e-05 4.16516e-05
16 1 9.58537 1.01334 0.748353 -1.28704e-06 -4.32441e-05 -4.75623e-06 4.35239e-05
17 1 5.65723 11.9467 11.6811 -3.04234e-06 2.60309e-06 2.32694e-05 2.36114e-05
18 1 7.65771 11.9618 7.47592 4.57582e-05 2.39807e-05 -4.57682e-07 5.16633e-05
19 1 3.63428 6.4117 0.254688 2.25625e-05 -5.10746e-05 -5.27025e-06 5.60844e-05
20 1 5.00213 8.00733 1.76159 -1.17204e-05 -8.66566e-06 3.56007e-05 3.84691e-05
21 1 4.13656 6.69374 3.92273 -2.11412e-05 4.32512e-05 -1.13768e-05 4.94676e-05
22 1 8.01559 8.31105 5.22977 1.04208e-05 -3.1598e-05 -1.91031e-05 3.8366e-05
23 1 4.31242 7.29557 7.17511 6.40166e-05 -7.02833e-05 0.000125456 0.000157407
24 1 6.91837 8.16869 9.76187 -3.21535e-05 1.33054e-05 -1.29866e-05 3.71421e-05
25 1 7.31624 5.38086 10.1191 8.99664e-05 -2.52106e-05 7.96596e-05 0.000122781
26 1 4.6007 7.6515 10.4603 3.1621e-05 -1.31432e-05 9.48287e-06 3.55325e-05
27 1 6.40742 9.54462 3.34355 -1.63609e-05 -2.32205e-05 -2.41744e-06 2.85081e-05
28 1 7.77879 10.8513 5.15628 -4.65342e-05 7.54234e-06 8.71523e-06 4.79403e-05
29 1 6.88626 9.4789 7.35117 2.89238e-05 3.278e-07 -2.08035e-05 3.56298e-05
30 1 9.17565 10.872 9.19723 1.44931e-05 1.04051e-05 -2.11861e-05 2.76978e-05
31 1 3.40758 9.0574 0.0279722 3.73895e-06 2.1587e-05 1.26834e-05 2.5315e-05
32 1 6.13775 12.1175 3.29202 -5.74234e-05 1.03737e-05 -3.13813e-05 6.62559e-05
33 1 7.20051 10.9108 1.13859 -2.65978e-05 -2.41665e-06 -2.83207e-05 3.89274e-05
34 1 7.43879 8.2745 1.32301 -3.46262e-05 4.08149e-05 -1.02427e-05 5.44953e-05
35 1 6.58752 6.93132 3.50307 3.9215e-05 -3.39096e-05 3.56686e-05 6.29279e-05
36 1 10.2102 8.96716 4.3787 6.35629e-05 -2.67952e-05 2.82371e-05 7.45356e-05
37 1 11.1801 3.61022 8.69545 -1.06889e-05 -3.64005e-05 2.61045e-05 4.6051e-05
38 1 10.3599 2.26476 10.8819 5.84895e-05 -8.20908e-06 -9.37736e-06 5.98026e-05
39 1 8.84848 4.3773 11.6974 -2.58427e-05 1.48304e-05 -3.9835e-05 4.97455e-05
40 1 10.1005 5.95692 1.0497 7.20227e-06 -3.53603e-06 -2.63361e-05 2.75312e-05
41 1 9.22827 4.6151 3.19794 -6.50841e-06 -3.81184e-06 6.4377e-06 9.91633e-06
42 1 10.5382 6.17675 4.80411 -2.07907e-05 4.34558e-05 -2.33535e-05 5.35355e-05
43 1 9.88825 2.13121 7.01863 -1.12834e-05 -5.04241e-06 2.70447e-05 2.97347e-05
44 1 9.65085 4.69143 6.99927 -3.9538e-06 8.39167e-06 -1.86386e-05 2.08195e-05
45 1 11.2289 4.64038 11.2155 4.32121e-06 -1.49273e-05 -1.74872e-07 1.55411e-05
46 1 9.88087 8.54629 0.897129 -4.09095e-06 -3.13664e-06 -1.71123e-05 1.7872e-05
47 1 8.99706 7.21771 3.04534 2.03005e-05 2.56245e-05 -3.90987e-06 3.29244e-05
48 1 10.4622 6.99566 7.44515 -3.71119e-05 -1.08487e-05 -1.53589e-05 4.16039e-05
49 1 10.7475 9.8314 10.97 -6.3925e-06 -9.42807e-06 -1.41188e-05 1.8141e-05
50 1 8.52007 7.04415 11.536 -2.392e-05 2.71706e-06 -2.65237e-05 3.58198e-05
51 1 10.9341 7.22752 11.1443 2.69879e-05 -1.94349e-06 7.25607e-06 2.80138e-05
52 1 4.84845 5.06498 10.5749 -3.54058e-05 1.33141e-05 1.33802e-05 4.01231e-05
53 1 10.7829 3.56167 4.89318 3.28126e-06 -3.69555e-05 -1.26687e-06 3.71225e-05
54 1 10.3784 3.38184 1.15424 -1.65027e-05 1.28085e-05 3.58015e-05 4.14504e-05
55 1 7.96462 7.05528 7.52593 2.22851e-05 -3.1093e-05 -9.67947e-06 3.94601e-05
56 1 9.32209 8.32904 9.35181 -3.05133e-06 1.3134e-05 -1.4295e-05 1.96509e-05
57 1 6.13615 6.6836 12.068 -2.23508e-05 -1.1851e-05 1.09714e-05 2.75749e-05
58 1 9.64949 11.1606 0.693321 -2.45193e-07 -7.43938e-06 -2.06858e-05 2.19843e-05
59 1 8.72424 9.90072 2.77661 -1.7193e-05 -1.66463e-05 -7.45495e-06 2.50655e-05
60 1 10.0107 11.5134 4.29287 -1.28194e-05 4.53567e-06 5.59431e-05 5.7572e-05
61 1 9.49353 2.03752 3.27752 4.30805e-05 -1.84262e-05 -1.78472e-05 5.01396e-05
62 1 9.51538 9.5005 6.99749 -8.05113e-06 1.47259e-05 -1.99416e-05 2.60642e-05
63 1 5.86979 9.34165 11.8443 1.32722e-05 3.97347e-06 -1.14041e-05 1.79442e-05
64 1 8.52166 12.4739 2.71241 4.48267e-06 -7.67289e-06 -1.4302e-05 1.68379e-05
65 1 10.0743 12.2077 7.02352 -5.31097e-05 -3.85965e-06 3.72103e-05 6.49626e-05
66 1 8.12004 12.2126 11.2656 1.3013e-05 1.18872e-05 -5.52234e-06 1.847e-05
67 1 11.0458 0.99819 4.99823 2.45907e-05 2.17989e-05 3.42313e-05 4.74518e-05
68 1 0.0558245 1.03958 8.67815 1.09661e-05 -8.16411e-06 2.12658e-05 2.52813e-05
69 1 0.229941 11.1022 8.72705 7.04333e-07 -5.49784e-06 8.14112e-06 9.84887e-06
70 1 8.30163 9.61808 11.3909 -1.99273e-05 -3.35833e-05 -3.66782e-06 3.92223e-05
71 1 5.84003 6.30418 8.56781 -0.00016254 5.25648e-05 -8.76492e-05 0.000192001
72 1 5.71402 5.70107 5.7599 -1.79947e-05 -2.5402e-05 -1.56001e-05 3.482e-05
73 1 3.8064 2.88441 9.95917 3.21435e-05 8.84639e-06 -5.95214e-06 3.38658e-05
74 1 2.52736 1.39825 8.29038 7.7628e-06 2.51915e-05 -1.91186e-06 2.64297e-05
75 1 3.41826 2.76959 6.17407 -5.02896e-07 2.42358e-05 -5.98092e-06 2.49679e-05
76 1 2.13539 1.26149 4.54155 -2.58449e-05 3.08493e-05 2.50339e-05 4.73955e-05
77 1 3.00784 2.54928 2.43029 2.83868e-05 8.61036e-06 7.82161e-06 3.06778e-05
78 1 4.09051 0.328059 10.0009 8.21004e-07 2.73267e-05 2.04642e-05 3.41498e-05
79 1 3.70595 0.224707 6.23387 2.76264e-05 1.29061e-05 -8.22526e-06 3.15822e-05
80 1 4.48841 0.525758 1.53143 -5.12891e-07 1.4399e-06 -1.22921e-05 1.23868e-05
81 1 0.720441 11.4357 0.252 -3.26868e-06 1.40972e-05 5.32086e-06 1.54184e-05
82 1 2.76874 11.5176 8.39012 2.31054e-05 2.85589e-05 -4.40484e-06 3.69983e-05
83 1 1.05114 11.8215 3.83289 -6.55262e-05 -2.31993e-05 1.60325e-05 7.13368e-05
84 1 4.32643 10.3836 10.0746 1.38164e-05 -4.36163e-07 4.80788e-06 1.46356e-05
85 1 1.67993 9.58449 7.32075 5.37263e-05 -7.63756e-06 3.52756e-05 6.47242e-05
86 1 2.69918 10.7889 5.48533 -2.51633e-05 -2.06642e-05 4.74961e-06 3.29053e-05
87 1 1.38795 9.25676 3.90691 1.25985e-05 6.50322e-06 1.34247e-05 1.95253e-05
88 1 2.32613 10.4374 1.92546 2.68094e-05 2.88551e-05 1.27524e-05 4.14002e-05
89 1 0.388566 8.46833 9.06807 -9.52361e-06 -2.65635e-05 2.27917e-05 3.62736e-05
90 1 11.1947 10.2068 2.32916 -5.47146e-06 6.11445e-06 -2.08547e-05 2.24108e-05
91 1 0.120357 10.5463 5.84271 -2.25021e-05 -1.27e-06 -4.41748e-05 4.95921e-05
92 1 1.80701 10.1193 10.5408 2.02134e-05 -1.84819e-05 -1.29347e-05 3.02898e-05
93 1 1.923 0.337335 1.8239 2.36826e-06 4.21962e-06 2.90518e-06 5.64393e-06
94 1 1.22315 12.5906 6.66162 1.60347e-05 -5.28345e-06 1.2317e-05 2.08982e-05
95 1 1.61838 0.00183931 10.3681 1.55235e-05 -1.98287e-05 -2.28019e-05 3.39718e-05
96 1 2.87005 1.53381 12.0481 2.15115e-05 4.56751e-06 -2.73042e-06 2.21599e-05
97 1 0.523076 2.25079 2.84868 -1.65949e-05 1.26812e-05 1.24337e-05 2.43064e-05
98 1 1.35404 2.56798 10.3495 -1.01863e-05 3.18583e-06 -1.86517e-05 2.14895e-05
99 1 0.277868 4.87013 2.7704 -3.2984e-05 2.40343e-05 3.19789e-06 4.09368e-05
100 1 0.683815 5.0382 6.51256 3.50248e-06 2.61002e-05 -1.59339e-05 3.07795e-05
101 1 0.699017 5.8804 9.20908 2.09411e-05 2.29584e-05 -2.1047e-05 3.75312e-05
102 1 0.0610164 7.49698 2.63659 -2.88689e-06 -2.39275e-05 -8.29138e-06 2.54874e-05
103 1 2.93379 8.24839 5.50735 -2.10433e-05 0.000100542 -5.97341e-05 0.000118827
104 1 0.951799 2.47638 6.59481 -1.45274e-05 -1.668e-06 1.58585e-05 2.15713e-05
105 1 1.39807 3.49699 0.702719 1.79701e-05 -2.77129e-06 -2.68172e-06 1.83793e-05
106 1 2.7421 5.11241 2.33552 -2.14835e-05 4.41472e-06 -5.52841e-06 2.26185e-05
107 1 1.84739 3.8082 4.45906 4.51093e-06 -1.42569e-05 1.26001e-05 1.95543e-05
108 1 5.24767 11.8725 7.9473 -9.74541e-06 2.05423e-06 -1.99162e-06 1.01567e-05
109 1 3.21334 11.6591 12.0823 -3.22203e-05 -2.56492e-06 1.79449e-05 3.69695e-05
110 1 6.96603 0.791069 1.10065 -9.18137e-07 -1.3206e-05 -2.66533e-05 2.97597e-05
111 1 6.1485 0.495984 5.7955 2.7558e-05 -5.40316e-05 -6.11077e-06 6.09606e-05
112 1 6.56179 0.614399 9.5931 -1.95789e-05 9.35677e-06 6.29142e-05 6.65513e-05
113 1 5.47747 2.81845 2.00036 1.82177e-05 -2.5942e-05 3.24447e-06 3.18653e-05
114 1 3.60727 11.9928 3.54322 2.44975e-05 5.20022e-05 -2.16406e-05 6.14221e-05
115 1 4.59815 1.5499 4.11031 -1.28561e-05 4.48926e-05 -7.90886e-06 4.73622e-05
116 1 4.98815 1.71252 7.89074 1.31659e-06 -1.79671e-05 -6.11884e-06 1.9026e-05
117 1 6.29432 3.14943 9.57507 -1.25062e-05 -1.10897e-05 1.45158e-05 2.21381e-05
118 1 5.36717 1.8264 11.6659 2.38197e-05 4.14861e-06 -2.74832e-06 2.43339e-05
119 1 3.88844 3.80736 0.342233 -4.09729e-05 -1.41881e-06 -1.47685e-05 4.35764e-05
120 1 5.21722 5.39211 1.92742 1.81005e-05 -3.23205e-05 4.23427e-05 5.62597e-05
121 1 4.32599 4.12405 4.06884 7.92515e-06 3.53942e-05 2.16395e-05 4.22354e-05
122 1 5.88786 3.07911 5.77937 4.0338e-05 -1.0007e-05 9.5494e-06 4.26437e-05
123 1 4.72085 4.23269 7.832 -3.06887e-05 2.09748e-05 -1.98536e-05 4.21415e-05
124 1 0.938233 8.80274 0.484303 -3.15879e-05 -8.86327e-06 -1.82253e-05 3.75302e-05
125 1 4.29679 9.74425 7.26501 2.0832e-05 8.54015e-06 -1.62401e-05 2.77605e-05
126 1 3.1954 5.33048 6.07456 2.66308e-06 3.16638e-05 -1.1153e-05 3.36761e-05
127 1 2.22993 3.9432 8.238 -3.21401e-05 2.85057e-05 -8.26103e-06 4.37471e-05
128 1 3.28678 6.02302 9.01945 2.43495e-05 4.34992e-05 -5.62582e-05 7.51669e-05
129 1 2.30001 4.82332 10.9279 4.5417e-05 -4.91197e-06 3.82561e-05 5.95849e-05
130 1 1.14422 6.14344 0.662844 2.77959e-06 -2.49084e-05 -3.58171e-05 4.37152e-05
131 1 2.53897 7.74378 2.19288 6.86216e-06 2.49298e-05 -1.60348e-05 3.04253e-05
132 1 6.74327 10.7058 9.65078 1.15233e-05 2.296e-05 -3.23312e-06 2.58921e-05
133 1 1.64465 6.39337 4.33035 -1.55733e-05 1.92851e-05 1.51368e-06 2.48341e-05
134 1 1.81923 7.0248 7.39773 2.50062e-05 -3.82472e-05 5.96428e-05 7.51361e-05
135 1 3.00796 8.58173 8.98071 3.89255e-05 5.42981e-07 -1.09367e-05 4.04364e-05
136 1 1.99623 7.40716 10.8499 -1.15703e-05 -1.81052e-05 8.46509e-06 2.30939e-05
137 1 4.80115 10.6403 1.58626 7.20557e-06 -1.9e-05 -1.3176e-05 2.42183e-05
138 1 3.94513 9.41568 3.61838 -6.64155e-05 -3.00241e-06 4.50697e-05 8.032e-05
139 1 5.26147 10.8982 5.32917 -5.58953e-05 -1.54855e-05 -1.23447e-05 5.92999e-05
140 1 5.55565 8.35223 5.38057 3.23582e-05 6.50963e-06 -3.17542e-05 4.58013e-05
141 1 10.5635 12.3997 10.778 2.46534e-05 -3.92816e-06 -4.90054e-05 5.49977e-05
