ITEM: TIMESTEP
0
ITEM: NUMBER OF ATOMS
129
ITEM: BOX BOUNDS pp pp pp
0.0000000000000000e+00 1.1436527999999999e+01
0.0000000000000000e+00 1.1745825000000000e+01
0.0000000000000000e+00 1.1261291999999999e+01
ITEM: ATOMS id type x y z fx fy fz v_fmag
1 1 1.08287 0.88754 10.2165 -4.24203e-06 -1.18139e-05 3.79629e-06 1.31139e-05
2 1 8.71321 10.0395 0.03254 -3.12583e-05 5.40122e-06 -1.16928e-05 3.38079e-05
3 1 7.41097 6.06429 9.5855 1.41753e-05 6.33624e-05 -3.66182e-06 6.50319e-05
4 1 8.31152 7.35783 7.65181 4.01125e-05 1.20338e-05 -2.9104e-05 5.09987e-05
5 1 7.03456 6.0378 6.03233 -1.15131e-05 -4.84422e-05 2.75996e-05 5.69292e-05
6 1 7.77817 7.51342 4.2333 4.72157e-05 -5.72224e-05 -0.000109823 0.000132533
7 1 6.61021 6.31497 2.53683 5.08542e-06 3.63696e-05 -1.35645e-05 3.91485e-05
8 1 8.71142 7.58758 11.2529 -7.96506e-06 5.24241e-05 -7.78434e-06 5.35941e-05
9 1 9.05746 4.29116 9.98315 1.56512e-05 4.33214e-05 6.32966e-05 7.82826e-05
10 1 8.63934 4.87521 7.60929 -1.83329e-05 -1.7621e-05 -3.64119e-06 2.56876e-05
11 1 7.39362 3.64259 5.83662 2.85513e-05 9.10194e-06 -2.11172e-05 3.666e-05
12 1 8.24332 5.04868 3.88437 -4.24785e-05 3.88698e-05 -4.07842e-06 5.77227e-05
13 1 6.88731 3.76076 2.27768 -8.44206e-06 8.90426e-06 3.93856e-05 4.12527e-05
14 1 7.81978 5.35505 0.626959 -2.09325e-05 1.13213e-05 -3.89183e-05 4.56178e-05
15 1 7.68883 8.71353 2.02275 2.29219e-05 -1.96019e-05 4.83368e-05 5.69745e-05
16 1 6.3205 1.20294 10.3947 -3.85667e-05 2.2024e-05 1.00168e-05 4.55279e-05
17 1 9.04954 1.74702 6.07126 5.62747e-07 1.3562e-05 -2.42103e-05 2.77558e-05
18 1 8.47079 2.60228 3.7493 -1.89712e-05 7.17329e-06 -3.94612e-05 4.43683e-05
19 1 6.96485 1.21279 1.89668 1.22633e-05 -1.50384e-06 -7.88124e-06 1.46548e-05
20 1 7.95669 2.75805 0.219312 -1.15103e-05 1.45349e-05 3.41978e-06 1.88533e-05
21 1 8.17952 0.428873 7.89748 6.12852e-05 1.85045e-05 3.79442e-05 7.44181e-05
22 1 10.0388 0.562585 3.7809 2.59913e-06 -6.24522e-06 -5.72345e-06 8.86094e-06
23 1 4.71177 10.7811 10.1583 1.08604e-05 -4.31872e-05 1.40172e-05 4.66858e-05
24 1 4.0586 10.6665 6.52076 8.12564e-06 -3.67669e-05 1.77222e-05 4.16162e-05
25 1 3.25686 10.8665 3.23508 -3.99309e-05 7.75826e-05 5.10986e-05 0.000101117
26 1 4.72693 8.35917 10.1281 1.61208e-05 9.47335e-06 -8.17891e-06 2.04088e-05
27 1 5.62784 9.57268 8.12906 -7.97706e-06 -5.31153e-05 -2.71666e-06 5.37797e-05
28 1 4.2123 8.2631 6.51465 3.32201e-05 -6.09465e-05 3.55878e-05 7.80034e-05
29 1 4.95841 9.55057 4.5036 -1.40368e-05 -2.1336e-05 -2.4539e-05 3.54178e-05
30 1 10.2724 2.95058 7.96744 -4.49239e-05 -6.18661e-05 1.66216e-05 7.82422e-05
31 1 7.42477 9.85555 4.18834 -3.57126e-05 -9.25706e-06 -4.50424e-06 3.71668e-05
32 1 6.65565 8.50342 6.16279 -3.91231e-06 1.65542e-05 4.95965e-05 5.24325e-05
33 1 8.12434 9.79909 7.66154 1.67691e-05 2.7024e-06 -3.7757e-05 4.14017e-05
34 1 8.43296 11.079 2.17702 2.07532e-05 6.50114e-05 -1.78562e-05 7.0541e-05
35 1 9.64182 9.02279 9.29507 -4.85486e-06 -2.31351e-05 -5.79282e-06 2.43384e-05
36 1 10.5742 10.453 7.45026 -1.93222e-05 1.39854e-05 -3.96124e-05 4.62394e-05
37 1 9.15992 8.74564 5.75496 5.47513e-05 3.10474e-05 -1.48079e-05 6.466e-05
38 1 9.85858 9.71606 3.63769 -8.27507e-06 2.09727e-05 6.8781e-06 2.3572e-05
39 1 10.2576 8.89435 1.41572 2.9285e-05 1.37688e-05 -8.2295e-06 3.33904e-05
40 1 10.8966 11.2978 1.62293 5.95538e-05 2.57256e-05 -1.99155e-05 6.78608e-05
41 1 9.856 6.49598 9.28973 3.22288e-05 1.99353e-05 1.90882e-05 4.2432e-05
42 1 10.7326 7.85104 7.3662 7.30243e-06 4.0903e-05 -2.98278e-05 5.11476e-05
43 1 9.49835 6.36979 5.57074 -7.32673e-06 2.61032e-06 -8.84731e-06 1.178e-05
44 1 0.155007 7.81555 3.113 -4.24483e-05 6.73731e-06 1.09832e-05 4.43607e-05
45 1 9.19964 6.90634 2.47275 -5.44856e-05 6.68387e-05 0.000107711 0.000137978
46 1 11.2672 7.93705 10.7082 2.45021e-05 -1.46069e-05 -2.75743e-05 3.96744e-05
47 1 11.4183 4.88067 10.1751 -2.13852e-05 6.91264e-05 2.26295e-05 7.58148e-05
48 1 10.9956 5.33179 7.26349 -2.54043e-05 -1.92741e-05 5.5152e-05 6.37072e-05
49 1 9.81102 3.96747 5.50006 -8.28224e-06 1.78855e-05 -9.37474e-06 2.1826e-05
50 1 10.7044 5.35986 3.45777 -7.19498e-06 -6.39839e-06 2.54365e-05 2.71978e-05
51 1 9.41134 3.99953 1.79167 -5.17282e-06 1.41349e-05 -1.65198e-05 2.23486e-05
52 1 10.3264 5.98739 0.65086 0.000103474 -7.67272e-05 -6.88994e-05 0.000146086
53 1 8.8266 0.621747 10.7163 9.92035e-06 -3.09075e-07 2.37579e-05 2.57478e-05
54 1 0.0418439 2.15205 5.66345 2.65364e-05 8.52088e-06 -1.65045e-05 3.23912e-05
55 1 10.8707 2.85907 3.40944 -2.47802e-06 1.93287e-05 -5.01441e-05 5.37975e-05
56 1 9.44854 1.55665 1.65425 1.5073e-05 4.57676e-05 -1.19889e-05 4.96548e-05
57 1 10.5133 2.49493 10.637 -3.16898e-05 1.26939e-05 -2.15849e-05 4.03892e-05
58 1 10.3919 0.653102 8.8756 5.56566e-05 -1.58609e-05 6.60336e-05 8.78046e-05
59 1 7.19675 10.8699 9.64085 5.47331e-06 -8.86079e-06 3.2175e-05 3.38186e-05
60 1 6.55935 10.9274 6.20685 2.09443e-05 6.12443e-05 2.42469e-05 6.9119e-05
61 1 5.8784 10.7969 2.55024 -4.01367e-05 3.03466e-05 5.73401e-05 7.62874e-05
62 1 7.19945 8.48729 9.64082 1.8529e-05 1.60473e-05 2.5744e-05 3.55471e-05
63 1 5.21663 8.37624 2.35875 4.41393e-05 -4.01889e-05 1.93466e-06 5.97258e-05
64 1 9.07352 11.1253 5.69193 -1.512e-05 -2.27814e-05 -3.25929e-05 4.2543e-05
65 1 6.27383 9.80359 0.402243 -1.81009e-05 4.4195e-05 -1.9563e-05 5.16096e-05
66 1 5.82641 7.12231 8.05009 -1.83773e-05 3.99123e-05 -1.24709e-05 4.56754e-05
67 1 3.92496 3.62687 10.527 2.40498e-05 1.86523e-05 6.21545e-05 6.92061e-05
68 1 3.66081 4.45736 8.21554 -1.66019e-05 1.2939e-05 -2.32054e-05 3.13294e-05
69 1 2.28399 3.03713 6.42271 -8.09115e-06 -9.44758e-06 1.84178e-05 2.22248e-05
70 1 3.22555 4.58742 4.7419 -5.7024e-06 -2.71366e-05 2.04677e-06 2.78047e-05
71 1 1.7645 3.35789 3.21427 2.10641e-05 -3.01392e-05 -5.46226e-06 3.71739e-05
72 1 2.78749 4.75436 1.23326 6.36459e-06 -4.64172e-05 -1.32092e-05 4.8678e-05
73 1 2.0252 11.6963 1.28943 1.32096e-05 6.4746e-06 3.10857e-05 3.43909e-05
74 1 5.20003 2.52236 8.56925 2.04492e-05 -9.67981e-06 -1.67943e-05 2.81765e-05
75 1 3.83959 1.26113 6.70379 3.74794e-05 -4.01565e-05 2.26096e-05 5.94007e-05
76 1 3.32064 1.93271 4.39464 1.48808e-05 8.77849e-06 -1.24059e-05 2.12698e-05
77 1 1.2309 0.9408 3.5009 -2.58093e-05 -1.39692e-05 4.80279e-06 2.97376e-05
78 1 2.76548 2.30842 1.34234 -2.23571e-05 6.52671e-06 -4.51385e-05 5.0793e-05
79 1 3.04965 11.7393 8.61059 -2.49569e-05 0.00013974 -3.9797e-05 0.000147424
80 1 3.7577 7.08137 0.741049 2.25168e-05 -1.73416e-05 3.11823e-05 4.21909e-05
81 1 5.00913 0.229443 4.65994 -1.84141e-05 -8.37068e-06 -3.32361e-05 3.89074e-05
82 1 0.0824454 9.15307 5.40366 -1.54574e-06 -4.16919e-06 1.07619e-05 1.16443e-05
83 1 1.20487 9.29848 1.07058 3.76099e-05 1.2438e-05 8.83823e-06 4.05872e-05
84 1 0.903163 6.71033 8.79802 1.48007e-05 -1.52721e-05 -2.16142e-05 3.03228e-05
85 1 0.424947 6.77354 5.29869 -2.48307e-05 -1.38996e-05 1.75782e-05 3.34478e-05
86 1 1.24232 6.72225 1.00946 2.11783e-05 -2.58724e-05 1.60328e-05 3.70803e-05
87 1 1.53961 3.18089 10.7457 1.65116e-05 -2.79988e-05 3.26753e-05 4.60895e-05
88 1 1.10111 3.85783 8.35961 -4.2351e-05 -3.27991e-05 -7.1658e-05 8.94665e-05
89 1 0.734743 4.39571 5.15598 1.73078e-05 -1.20103e-05 1.8443e-06 2.11474e-05
90 1 0.39388 4.27122 1.39844 -8.0267e-05 3.86319e-05 -4.15016e-05 9.82731e-05
91 1 2.8029 2.28369 8.82989 2.2532e-05 -0.000134513 -7.30643e-05 0.000154725
92 1 0.974229 1.1675 7.64575 1.56511e-05 -9.74262e-06 -7.69941e-06 1.99789e-05
93 1 0.16247 11.5455 5.4173 -0.000110035 1.51529e-05 2.26363e-05 0.000113356
94 1 0.392142 1.81142 1.31875 7.8278e-06 2.8324e-05 -3.35241e-05 4.45802e-05
95 1 0.733186 9.28843 8.87125 3.81592e-05 2.59312e-05 -1.10697e-05 4.74456e-05
96 1 1.63606 5.81396 3.20694 -2.95347e-05 -2.56918e-05 4.09884e-05 5.66781e-05
97 1 2.86296 7.0536 4.89974 -2.31063e-05 -3.00874e-05 -3.20185e-05 4.96421e-05
98 1 2.04765 5.60442 6.80466 1.36281e-05 -3.44006e-05 2.98353e-05 4.75318e-05
99 1 4.54093 5.82804 6.38847 -1.33378e-05 -2.83561e-05 4.66977e-05 5.62374e-05
100 1 5.36034 7.2102 4.54706 -4.39676e-05 -3.7582e-05 -3.32276e-05 6.67056e-05
101 1 4.07028 6.07635 2.90112 -4.0415e-05 -1.08986e-05 1.85738e-05 4.57945e-05
102 1 6.27879 7.27762 0.347664 -1.03025e-05 2.90419e-05 2.80174e-05 4.16479e-05
103 1 6.38005 3.94235 10.2284 -5.28951e-05 2.20723e-05 2.95829e-06 5.73919e-05
104 1 6.18516 4.64252 7.88455 8.2932e-06 5.14404e-05 -9.92404e-06 5.30413e-05
105 1 4.83201 3.38308 6.15527 2.82333e-05 4.01447e-06 -2.17071e-05 3.58389e-05
106 1 5.75272 4.80481 4.32199 -1.30634e-05 -1.39596e-05 -4.24662e-06 1.95847e-05
107 1 4.30146 3.56913 2.76863 -9.57913e-06 -2.93759e-05 -1.85477e-05 3.60377e-05
108 1 5.25206 5.04969 0.942379 -2.88396e-05 -2.11963e-06 -3.25538e-05 4.35427e-05
109 1 3.70411 1.06629 10.8146 -1.36578e-05 1.95049e-05 -3.64296e-05 4.35211e-05
110 1 7.76749 2.66615 8.57189 -2.33955e-05 -1.0076e-05 5.91202e-05 6.43745e-05
111 1 6.46727 1.56926 6.43423 6.43102e-05 -3.39608e-05 1.73778e-05 7.47738e-05
112 1 5.93034 2.3632 4.07363 -1.56301e-05 5.38502e-06 -1.33558e-05 2.12527e-05
113 1 4.45374 0.957009 2.29502 8.96804e-07 -7.48453e-05 4.09913e-06 7.49629e-05
114 1 5.34834 2.59031 0.797842 1.28491e-05 3.00189e-06 -1.91012e-05 2.32156e-05
115 1 5.53446 0.223264 8.20542 4.95884e-06 3.37145e-05 -3.19547e-05 4.67157e-05
116 1 7.47002 0.50113 4.24831 2.34001e-05 -3.40855e-05 -3.60596e-05 5.48606e-05
117 1 2.19276 10.4991 10.4559 -4.70958e-05 -2.07098e-05 2.38107e-05 5.66909e-05
118 1 1.63001 10.6097 7.01523 -2.35772e-05 -6.07784e-06 -1.60693e-05 2.91728e-05
119 1 0.854285 10.2439 3.30359 -1.17967e-05 4.32114e-05 4.23214e-05 6.16237e-05
120 1 2.28204 8.05903 10.4111 2.17719e-05 5.50654e-05 -4.51444e-06 5.93851e-05
121 1 3.21076 9.35685 8.49952 3.50516e-05 -8.51763e-05 -2.21866e-06 9.21332e-05
122 1 1.75145 8.09541 6.9297 8.89729e-06 -2.27683e-05 1.4549e-05 2.8447e-05
123 1 2.48306 9.47197 5.00996 -1.37453e-05 -4.54194e-05 -4.79139e-06 4.7695e-05
124 1 2.69033 8.29032 2.7695 3.35409e-05 9.96294e-08 4.73613e-05 5.80353e-05
125 1 3.76319 9.79243 0.979373 -9.65063e-06 -1.91047e-05 3.39794e-05 4.01588e-05
126 1 2.40061 5.52406 10.2418 -3.27161e-05 5.1294e-06 1.08463e-05 3.48468e-05
127 1 3.371 6.928 8.4217 2.65894e-05 -1.63809e-06 -1.07183e-05 2.87151e-05
128 1 4.90438 5.87451 9.95834 -7.33244e-07 4.21368e-06 -1.42298e-05 1.48587e-05
129 1 11.0468 10.6416 10.5861 3.11061e-05 -1.71067e-05 2.076e-05 4.11243e-05
