ITEM: TIMESTEP
0
ITEM: NUMBER OF ATOMS
147
ITEM: BOX BOUNDS pp pp pp
0.0000000000000000e+00 1.1400361000000000e+01
0.0000000000000000e+00 1.2098903999999999e+01
0.0000000000000000e+00 1.2816801000000000e+01
ITEM: ATOMS id type x y z fx fy fz v_fmag
1 1 0.521703 4.85445 10.3486 3.40772e-05 -9.48498e-06 2.54099e-05 4.35533e-05
2 1 6.17976 11.4345 0.815048 -7.57046e-06 1.73906e-05 -3.10554e-06 1.92195e-05
3 1 7.73242 11.1629 5.00098 -1.28708e-06 5.5069e-05 -4.00408e-06 5.52293e-05
4 1 6.78092 11.3403 9.33767 -1.15143e-05 -1.51242e-06 -4.25697e-05 4.41254e-05
5 1 6.55988 0.349239 3.13339 2.15227e-05 -2.61848e-05 5.76294e-05 6.68582e-05
6 1 5.64165 0.555592 7.48646 -1.19466e-05 7.67076e-06 1.58748e-06 1.42857e-05
7 1 7.80677 1.21115 1.12109 5.51041e-05 3.21206e-05 -1.75196e-05 6.61448e-05
8 1 8.07585 9.98505 11.1897 2.16834e-05 4.85244e-06 6.62577e-06 2.31866e-05
9 1 8.23484 2.20309 3.43505 -1.76639e-06 -2.78437e-05 7.68954e-06 2.89399e-05
10 1 6.14078 1.58738 9.75957 2.63616e-05 2.65014e-05 3.52647e-05 5.13893e-05
11 1 7.41663 0.220928 11.6049 -3.34557e-08 4.77262e-05 -2.60156e-06 4.77971e-05
12 1 8.2492 4.42805 12.3768 2.24352e-06 3.96455e-06 -2.56107e-07 4.56253e-06
13 1 7.03682 3.55064 1.56985 -1.91707e-05 4.05313e-05 -1.08189e-05 4.61232e-05
14 1 8.73215 3.24433 5.70947 -2.14981e-05 1.24591e-05 7.85707e-05 8.2406e-05
15 1 7.38674 2.42539 7.74382 1.34969e-05 2.89028e-05 -1.48524e-05 3.51871e-05
16 1 6.96775 1.39178 5.45213 3.57234e-05 -7.85696e-05 -1.81471e-05 8.81967e-05
17 1 7.50435 8.97213 8.94345 -1.76888e-05 -1.04057e-05 2.79246e-05 3.46548e-05
18 1 8.84459 9.82398 6.86574 -1.51471e-05 -2.72398e-05 7.11974e-06 3.19708e-05
19 1 6.03711 9.2791 4.70802 -4.60714e-06 -3.53774e-05 1.27243e-05 3.78774e-05
20 1 7.83189 3.41395 10.0641 3.99276e-05 -1.62083e-05 1.76854e-05 4.65799e-05
21 1 6.60728 2.58761 12.0781 1.29605e-05 2.30154e-05 3.14219e-06 2.65999e-05
22 1 6.39628 5.8732 2.01657 -4.41515e-06 -1.03275e-05 4.33457e-05 4.47772e-05
23 1 5.08692 5.03536 3.98996 2.49729e-05 -2.68297e-05 -1.75734e-05 4.06485e-05
24 1 7.94117 5.58429 6.17374 -5.21938e-06 -6.66881e-06 1.10222e-06 8.53989e-06
25 1 6.64037 4.77041 8.19478 -1.52485e-05 -2.61265e-07 -1.33915e-05 2.02957e-05
26 1 7.02512 5.79989 10.5104 -5.00587e-06 -4.52148e-05 2.01643e-06 4.55358e-05
27 1 5.78339 4.98791 12.546 -3.01505e-05 2.01029e-05 2.96769e-05 4.68391e-05
28 1 8.12595 7.75639 2.28157 1.8291e-05 3.53313e-05 1.39163e-05 4.21489e-05
29 1 6.79725 6.91975 4.30099 3.45444e-05 -4.20672e-05 2.53165e-06 5.44919e-05
30 1 7.17017 7.94648 6.61259 7.34493e-06 1.87587e-05 1.47277e-05 2.49548e-05
31 1 5.85809 7.12231 8.65978 1.78954e-05 4.43056e-05 1.1174e-05 4.90722e-05
32 1 8.69095 7.64011 10.8075 4.12389e-05 4.06932e-05 2.6659e-05 6.37753e-05
33 1 6.97213 9.11824 0.412048 1.07141e-05 -6.26243e-06 -3.63505e-06 1.29315e-05
34 1 7.34139 10.115 2.69119 -5.95485e-05 5.35616e-06 -5.10034e-06 6.0006e-05
35 1 10.2981 2.86589 9.9396 -1.67376e-05 1.65481e-05 -1.89417e-05 3.02121e-05
36 1 4.95442 2.92143 7.88647 -5.31642e-05 -8.45743e-07 -2.80998e-05 6.01394e-05
37 1 9.06744 2.04563 11.9403 1.98721e-06 1.10697e-05 6.16386e-05 6.26562e-05
38 1 7.53377 4.55835 3.86367 -6.91362e-05 -1.06701e-05 5.2373e-05 8.73876e-05
39 1 8.08604 0.0833784 7.30194 -5.7576e-05 4.40308e-05 9.43995e-07 7.24886e-05
40 1 10.2565 0.739645 0.985581 4.12446e-05 4.35898e-05 3.50299e-05 6.94859e-05
41 1 10.6695 1.66751 3.34037 4.73747e-05 3.40715e-05 -4.19777e-06 5.85051e-05
42 1 9.4669 0.932577 5.32199 2.42849e-05 2.26914e-05 9.81842e-06 3.46563e-05
43 1 8.63455 1.06997 9.59076 -8.79036e-06 4.0666e-05 1.03523e-05 4.28738e-05
44 1 9.96581 11.8063 11.3568 2.5604e-05 1.54914e-05 7.92706e-06 3.09578e-05
45 1 9.02883 11.9635 2.96564 -2.70896e-05 -1.54958e-05 1.0014e-05 3.27757e-05
46 1 10.7117 3.88304 12.2799 -1.80835e-05 -1.43191e-05 3.40776e-05 4.11501e-05
47 1 9.80741 1.98435 7.58414 -5.8683e-05 7.60252e-06 2.51112e-05 6.42812e-05
48 1 9.96736 4.08235 3.67032 4.1059e-06 -4.01423e-05 4.73749e-05 6.22306e-05
49 1 9.95477 6.26882 12.6507 -3.8643e-05 -2.4011e-05 2.99071e-05 5.44449e-05
50 1 10.7399 6.17303 8.37457 1.62715e-05 2.14197e-05 3.37242e-05 4.3138e-05
51 1 10.8947 8.32461 4.46681 6.57371e-05 6.9107e-05 2.81069e-06 9.54203e-05
52 1 11.0716 10.5033 0.545104 1.27067e-05 -5.39842e-06 -1.25451e-05 1.86543e-05
53 1 9.47026 3.065 1.43805 -3.32469e-06 4.68028e-06 -4.85458e-05 4.88841e-05
54 1 9.19462 10.8416 9.14909 -6.32545e-06 -2.57382e-05 4.93826e-05 5.60456e-05
55 1 10.1826 10.7183 4.82967 3.528e-05 -5.32992e-05 3.41083e-05 7.2449e-05
56 1 8.63272 10.9868 0.620302 -3.46002e-05 2.14464e-05 5.47101e-05 6.81932e-05
57 1 10.3885 5.05778 6.01996 1.45065e-05 -1.79009e-05 5.44738e-06 2.3676e-05
58 1 9.07258 4.29282 8.06307 2.33951e-05 -4.29138e-05 -6.22547e-06 4.92715e-05
59 1 9.48086 5.25387 10.366 1.84191e-05 -5.15262e-06 1.00007e-05 2.1583e-05
60 1 7.4921 6.7847 0.00607698 1.44402e-05 3.4539e-06 2.42193e-05 2.84082e-05
61 1 10.568 7.2498 2.08716 1.55559e-05 -1.65407e-05 1.77033e-05 2.87921e-05
62 1 9.22867 6.43985 4.16058 -3.4414e-05 -9.07496e-06 4.21004e-05 5.51282e-05
63 1 9.60303 7.44936 6.46761 -4.04949e-05 -1.70282e-05 -2.93811e-05 5.28493e-05
64 1 8.30359 6.63132 8.49546 3.13438e-05 -3.89945e-06 -1.73289e-05 3.60268e-05
65 1 11.1129 7.13937 10.6823 2.64497e-05 -2.13626e-05 2.6786e-05 4.32832e-05
66 1 9.38927 8.61707 0.251907 -2.86755e-05 -3.02583e-05 -4.39723e-06 4.19188e-05
67 1 9.77813 9.64643 2.54613 6.64382e-05 -3.62858e-05 1.54122e-05 7.72544e-05
68 1 8.47803 8.80858 4.58045 2.29472e-05 -1.81883e-05 1.63247e-05 3.35244e-05
69 1 11.2652 9.3622 6.80726 -4.37612e-05 1.34855e-05 3.18663e-06 4.59027e-05
70 1 9.94807 8.51576 8.78348 -3.49315e-05 -7.60164e-06 6.7685e-05 7.65457e-05
71 1 10.5723 9.4584 11.0579 4.36504e-05 -2.02046e-05 3.04111e-05 5.69071e-05
72 1 8.85539 5.40419 1.85001 3.18843e-06 -5.84933e-05 -7.73768e-06 5.90889e-05
73 1 0.169998 10.5647 9.1024 2.07185e-05 3.85638e-05 -2.56373e-05 5.07316e-05
74 1 6.25008 3.72689 5.87127 5.7419e-06 1.21358e-05 8.4941e-07 1.34524e-05
75 1 4.97571 0.707818 11.763 8.71023e-06 -2.43625e-06 -3.57382e-05 3.68649e-05
76 1 2.29294 8.9152 6.7891 2.53256e-05 -1.05746e-05 2.27998e-06 2.75392e-05
77 1 0.976707 8.14692 8.80809 -3.25153e-05 1.32835e-05 4.83939e-05 5.97969e-05
78 1 3.50048 9.03526 11.0809 2.96256e-05 -5.99473e-05 -2.77858e-05 7.24114e-05
79 1 2.18585 9.95191 0.54011 -3.23005e-05 1.59182e-05 -5.58264e-05 6.64327e-05
80 1 2.42485 11.0467 2.86877 3.45495e-05 4.24003e-05 -7.75358e-06 5.5241e-05
81 1 1.14749 10.2843 4.83828 -5.75555e-05 -3.53485e-05 3.04483e-05 7.40895e-05
82 1 1.91185 7.89819 4.4582 7.01095e-06 -9.41189e-06 -4.061e-05 4.22718e-05
83 1 3.97455 10.7942 7.15773 -2.05514e-06 -6.08503e-05 2.35727e-05 6.5289e-05
84 1 1.21042 10.9181 11.3882 -4.29732e-05 1.69862e-05 4.01318e-05 6.12028e-05
85 1 1.25553 0.221637 1.02889 -3.02768e-05 -2.20869e-05 -3.17709e-05 4.91315e-05
86 1 2.80881 0.0200902 5.23024 -3.15433e-05 1.217e-05 -2.47764e-05 4.19162e-05
87 1 1.8332 0.255995 9.53126 -2.91972e-05 8.35243e-06 -2.83252e-05 4.15278e-05
88 1 1.62657 1.21447 3.36235 -2.93609e-05 4.41835e-06 7.85868e-07 2.97019e-05
89 1 0.746254 1.46854 7.71033 3.00092e-05 3.11366e-05 -4.61106e-05 6.32157e-05
90 1 2.56938 10.0243 9.09373 -3.49208e-05 4.47495e-05 -8.67755e-07 5.67691e-05
91 1 3.22737 8.71332 2.50943 5.82911e-05 3.46887e-06 -1.57898e-05 6.04914e-05
92 1 0.940136 5.74364 12.7549 -3.58166e-05 6.54351e-07 4.90225e-05 6.07162e-05
93 1 2.10711 6.87434 10.7767 3.22689e-05 -1.35603e-05 1.96026e-05 4.01176e-05
94 1 0.627393 7.01813 6.41452 2.55677e-05 -4.09939e-05 -6.01239e-06 4.86863e-05
95 1 0.769001 9.24064 2.48809 -4.18753e-05 -6.7983e-05 -2.33118e-05 8.31785e-05
96 1 0.509953 8.18521 0.0284473 -3.39162e-05 3.25201e-07 9.4567e-06 3.52114e-05
97 1 1.53703 11.2779 7.14009 -3.61435e-05 -5.33035e-05 9.06805e-06 6.50372e-05
98 1 0.474867 2.65537 1.41563 -2.78799e-05 -1.71131e-05 -3.47562e-05 4.77299e-05
99 1 0.901459 3.57268 3.8252 2.64975e-06 3.97679e-05 5.76612e-06 4.02711e-05
100 1 0.163637 1.46364 11.8189 2.07266e-05 -4.38411e-05 -3.42217e-05 5.93528e-05
101 1 1.39553 4.69052 6.0358 -1.45847e-05 1.56112e-05 1.55203e-05 2.64065e-05
102 1 0.107957 3.84749 7.97888 -4.2402e-05 1.80262e-05 5.69743e-05 7.32731e-05
103 1 2.9467 4.47055 10.3032 -2.04379e-05 1.0198e-05 1.97807e-05 3.02156e-05
104 1 1.75065 3.38576 12.2423 1.81262e-05 -1.0412e-05 -1.80474e-05 2.76166e-05
105 1 1.56572 6.89219 2.10605 -1.3393e-05 -4.60617e-05 -6.32724e-06 4.83848e-05
106 1 0.253008 5.97046 4.02468 3.78462e-05 -1.39725e-05 2.61676e-05 4.80865e-05
107 1 3.06543 6.56875 6.39575 -4.4743e-05 1.10555e-05 -5.38909e-05 7.09111e-05
108 1 1.77029 5.77219 8.39512 2.09614e-05 3.95761e-05 -5.94317e-05 7.44162e-05
109 1 2.89852 2.1004 1.35557 4.22443e-05 -5.83534e-06 -3.85365e-05 5.74778e-05
110 1 4.57207 3.98486 1.7097 5.21069e-05 -3.2508e-06 -1.72331e-05 5.49789e-05
111 1 3.31364 3.12945 3.70487 3.03834e-05 -2.30472e-05 -3.50538e-05 5.17986e-05
112 1 1.30145 2.56875 9.92994 -6.33908e-06 2.10535e-05 7.04569e-06 2.30884e-05
113 1 4.88807 10.5725 2.80765 -3.61878e-05 -2.79994e-05 -3.21329e-05 5.59111e-05
114 1 3.59112 9.77036 4.82023 1.19948e-05 -2.92527e-05 6.08318e-05 6.85573e-05
115 1 6.41114 10.303 7.03292 -1.49473e-05 -5.51683e-06 -7.35462e-06 1.75484e-05
116 1 5.06845 9.47172 9.07562 1.74747e-05 1.91186e-05 -1.50457e-05 2.99543e-05
117 1 5.57104 10.5043 11.3539 -1.64356e-05 5.56291e-05 -4.59082e-05 7.39749e-05
118 1 3.73879 11.8301 0.872538 -2.10512e-05 -1.13845e-06 -1.88884e-05 2.83058e-05
119 1 4.58678 9.43262 0.512091 -1.39415e-05 1.92308e-05 -1.52942e-05 2.82507e-05
120 1 5.26913 11.6309 5.14533 -2.46573e-05 -1.69084e-05 -8.54423e-06 3.10947e-05
121 1 4.09781 0.806118 3.22954 -2.18681e-06 2.85832e-05 -1.02651e-05 3.04492e-05
122 1 3.21476 1.03973 7.59272 -9.84837e-06 3.61598e-05 -1.43394e-05 4.01265e-05
123 1 5.36115 1.6656 1.25825 -5.50836e-05 -2.21651e-05 -1.33555e-05 6.08594e-05
124 1 5.78265 2.68542 3.57911 -1.09678e-05 7.00551e-06 4.14066e-06 1.36571e-05
125 1 4.47925 1.86415 5.58452 -3.2453e-05 -6.03118e-06 -3.55078e-05 4.84807e-05
126 1 3.7002 2.086 9.88351 -5.25104e-06 -1.95064e-05 -3.69832e-05 4.21406e-05
127 1 4.2806 11.7943 9.56335 -2.77717e-05 2.72459e-05 8.62643e-06 3.98499e-05
128 1 6.17005 8.16179 11.0463 -5.28343e-06 -3.41285e-05 -3.92673e-05 5.22933e-05
129 1 3.41806 7.64627 8.76463 -7.4295e-06 2.8115e-06 -1.19129e-05 1.43185e-05
130 1 4.73429 8.43692 6.73363 -5.32259e-05 2.31329e-05 -4.93642e-05 7.61902e-05
131 1 2.55781 0.96271 11.8245 2.89984e-05 5.3895e-05 -2.89876e-05 6.7719e-05
132 1 3.35697 5.26928 12.638 1.59196e-05 5.69432e-06 -1.9925e-05 2.61317e-05
133 1 2.08728 4.48474 1.82805 6.31093e-06 7.949e-07 -1.45485e-05 1.58782e-05
134 1 3.79601 4.20118 5.97724 -1.64947e-05 -1.31418e-05 7.69581e-06 2.24501e-05
135 1 2.53022 3.40237 7.96367 5.79847e-05 1.78257e-05 -4.01015e-05 7.27194e-05
136 1 5.37296 3.97201 10.2236 1.07659e-05 -1.87116e-06 -5.01857e-05 5.13616e-05
137 1 4.16996 2.99428 12.1931 7.59326e-06 9.55917e-06 -1.14459e-05 1.67345e-05
138 1 3.99211 6.35323 2.05009 5.26805e-05 -2.72776e-06 1.29543e-05 5.43184e-05
139 1 2.67361 5.53389 4.05388 -1.48766e-05 4.54421e-05 -1.90267e-06 4.78531e-05
140 1 5.49686 6.07838 6.30615 6.75939e-05 5.60422e-06 -8.00904e-06 6.82971e-05
141 1 4.20675 5.28617 8.32605 -9.77347e-06 -8.28003e-06 -1.35273e-05 1.86298e-05
142 1 4.52994 6.40837 10.7397 9.22579e-06 1.38042e-06 -3.30002e-05 3.42934e-05
143 1 2.97265 7.6038 0.174931 -3.12312e-05 7.2103e-06 -3.23169e-05 4.55166e-05
144 1 5.67858 8.20869 2.38536 -5.82161e-06 -3.02733e-05 -1.45457e-05 3.40873e-05
145 1 4.35772 7.40456 4.39674 1.02576e-05 3.37394e-05 -3.99091e-05 5.32569e-05
146 1 1.92163 2.28484 5.70555 1.66696e-05 -1.89682e-05 -1.31998e-05 2.84939e-05
147 1 10.5214 11.7258 7.15443 7.20312e-05 9.20257e-06 3.0339e-05 7.86997e-05
