ITEM: TIMESTEP
0
ITEM: NUMBER OF ATOMS
143
ITEM: BOX BOUNDS pp pp pp
0.0000000000000000e+00 1.1400361000000000e+01
0.0000000000000000e+00 1.2098903999999999e+01
0.0000000000000000e+00 1.2816801000000000e+01
ITEM: ATOMS id type x y z fx fy fz v_fmag
1 1 1.15763 2.29083 12.6279 1.67435e-05 5.22863e-06 1.46806e-05 2.28736e-05
2 1 7.76784 0.545296 7.99448 -6.14043e-06 -1.94541e-05 1.16171e-05 2.3476e-05
3 1 8.9311 1.57557 10.1119 0.000104219 4.29473e-05 -9.87576e-05 0.000149864
4 1 7.40831 0.334963 11.534 -0.000155825 -0.000136999 0.000148048 0.000254889
5 1 11.2516 3.61076 1.62736 -1.21261e-05 5.1744e-06 9.48053e-06 1.62388e-05
6 1 8.40422 3.59847 4.80132 8.48195e-08 -9.19803e-06 -4.72391e-06 1.03405e-05
7 1 9.55367 4.53384 6.95877 -1.03266e-05 -1.808e-05 1.87619e-05 2.80274e-05
8 1 9.32103 1.8791 6.54725 3.00057e-05 -2.18773e-05 1.67794e-05 4.07493e-05
9 1 8.01279 3.19739 8.3357 4.49262e-05 -1.0122e-05 2.69926e-05 5.33799e-05
10 1 7.62747 2.92554 11.9205 -9.36415e-06 3.44324e-05 2.70621e-05 4.47843e-05
11 1 9.96122 4.96719 3.38551 6.12469e-06 -4.08731e-05 3.94629e-05 5.71441e-05
12 1 11.0999 5.88934 5.59901 9.87396e-07 2.86503e-05 2.50601e-05 3.80765e-05
13 1 8.23989 5.8155 8.75316 -1.58499e-05 -3.52786e-05 -6.91643e-06 3.92891e-05
14 1 9.36289 6.78399 10.9398 1.59511e-05 -5.01894e-06 -1.89058e-05 2.52399e-05
15 1 7.85703 5.49875 12.3272 -1.1792e-05 -1.06055e-05 3.50721e-06 1.62428e-05
16 1 9.16656 4.19091 10.5014 -2.8216e-05 2.50616e-05 -2.17897e-06 3.78018e-05
17 1 9.07077 6.63219 1.56323 -1.68119e-05 -2.08167e-07 1.40668e-05 2.19216e-05
18 1 8.17468 0.936322 4.36461 -5.1558e-06 -4.86315e-05 1.07106e-05 5.00632e-05
19 1 8.54763 1.33998 0.875063 1.52564e-05 4.02387e-06 5.76217e-05 5.97428e-05
20 1 5.40871 5.82465 11.9795 -4.04029e-05 -2.14937e-05 -2.44715e-05 5.18964e-05
21 1 6.63913 6.95322 1.24031 1.1495e-05 9.71251e-06 2.75691e-05 3.1409e-05
22 1 5.28396 8.18735 3.09385 -2.70211e-05 6.6717e-05 2.13477e-06 7.20129e-05
23 1 4.84593 7.8384 6.73692 2.02378e-05 4.83418e-06 -8.29013e-06 2.23979e-05
24 1 5.98323 8.80145 8.94813 9.52843e-06 -3.73405e-07 1.80795e-05 2.04401e-05
25 1 4.15379 7.31023 0.791126 2.4476e-05 -1.08162e-06 -9.04537e-06 2.61164e-05
26 1 9.71215 2.29308 3.01796 2.14365e-05 4.63942e-05 4.081e-05 6.54019e-05
27 1 1.88123 10.1368 1.03021 -1.54059e-05 -8.64232e-06 3.12407e-06 1.79385e-05
28 1 3.93757 9.45308 4.96923 6.08084e-05 2.88019e-06 4.1714e-05 7.37972e-05
29 1 5.07175 10.422 7.18688 3.30667e-06 2.24528e-05 1.75215e-05 2.86717e-05
30 1 4.60057 10.0193 10.8612 5.02406e-05 1.62133e-05 -6.69929e-06 5.32153e-05
31 1 3.42243 11.4949 12.5659 -4.49584e-05 -1.08105e-05 9.45481e-06 4.71966e-05
32 1 4.1628 12.0449 5.41476 -1.86836e-06 4.76971e-05 1.83941e-05 5.11551e-05
33 1 3.71903 11.6506 9.07535 1.55524e-05 -2.63404e-05 1.44803e-06 3.06234e-05
34 1 3.02707 11.072 3.21257 1.00401e-05 -6.54711e-06 1.87821e-05 2.22808e-05
35 1 6.92512 7.05929 10.5408 -4.77762e-06 -1.06517e-06 -3.68887e-06 6.12928e-06
36 1 7.73401 7.85845 3.48738 -1.56246e-05 6.18513e-05 -3.2042e-05 7.13891e-05
37 1 8.44922 8.46005 9.27147 2.87429e-05 -3.56309e-05 -9.82971e-05 0.000108435
38 1 0.115188 6.31233 1.89807 -2.94617e-05 -2.05256e-05 -1.75918e-05 3.99845e-05
39 1 10.1889 7.52283 3.8274 -1.94347e-07 -7.3567e-06 7.57408e-06 1.05606e-05
40 1 9.78206 7.18474 7.43879 1.83179e-05 4.94923e-06 -1.90987e-05 2.69221e-05
41 1 10.9125 8.12955 9.64072 -7.32528e-06 -9.46516e-06 -3.88788e-05 4.06794e-05
42 1 10.5425 8.02268 0.0305708 1.17615e-05 -2.98367e-05 2.74622e-05 4.22225e-05
43 1 6.89844 9.53481 1.71063 -1.06434e-05 -5.68651e-06 5.16285e-05 5.30201e-05
44 1 0.44378 6.42938 11.2674 -1.53519e-05 -5.14661e-07 -2.22083e-05 2.70028e-05
45 1 7.95585 10.439 3.94815 -6.78408e-06 -4.0904e-06 -1.74112e-05 1.91286e-05
46 1 10.0022 9.77445 7.90101 8.82245e-08 -1.26136e-05 8.02787e-07 1.26394e-05
47 1 9.78782 12.0813 11.9549 0.000106162 -1.18982e-05 4.01317e-05 0.000114117
48 1 9.47711 11.7194 2.50594 -4.45272e-05 2.9509e-05 4.17761e-06 5.35809e-05
49 1 9.09546 11.3983 6.12629 -9.92814e-06 -1.26717e-05 -1.69344e-05 2.33648e-05
50 1 8.61819 10.9361 9.86397 7.98833e-06 -4.90019e-05 -1.89099e-05 5.3128e-05
51 1 9.27767 9.15202 2.05443 -5.82446e-05 1.81725e-05 -3.06952e-05 6.82998e-05
52 1 8.86791 8.80978 5.69199 1.87358e-05 7.44977e-06 1.99164e-05 2.83406e-05
53 1 7.31151 7.50934 7.08748 1.20997e-05 -3.93361e-05 -5.11314e-05 6.56366e-05
54 1 10.699 5.50151 9.12001 -2.2788e-05 -3.1744e-06 3.64849e-05 4.31337e-05
55 1 10.4712 2.86376 8.69471 -2.7743e-05 -2.01835e-05 1.79641e-05 3.87267e-05
56 1 6.00865 8.58033 12.29 3.64475e-05 -1.65678e-05 -2.89084e-05 4.93823e-05
57 1 4.38957 9.78954 1.34206 -7.49068e-05 -7.12198e-05 6.71947e-05 0.000123282
58 1 5.49385 10.7512 3.56878 -7.48939e-06 1.8644e-05 1.42591e-05 2.46376e-05
59 1 6.39859 9.13296 5.33275 -2.58001e-05 2.91556e-06 4.61589e-05 5.29602e-05
60 1 7.5382 10.0975 7.53253 1.14637e-05 -1.88381e-05 1.12834e-05 2.47711e-05
61 1 8.38035 9.91709 12.3775 -7.34366e-05 0.000181714 0.000127075 0.000233583
62 1 10.3223 5.18781 12.6726 -3.27686e-05 -1.26236e-05 -3.74114e-05 5.13103e-05
63 1 5.95645 11.1066 0.0274539 6.63806e-05 0.000157124 -0.000114089 0.000205208
64 1 6.19998 11.328 9.44673 1.25044e-05 4.83146e-05 2.84567e-06 4.99876e-05
65 1 10.09 2.59769 12.2756 5.01552e-05 -5.67541e-06 3.40408e-06 5.059e-05
66 1 10.6345 0.597907 4.69867 -9.66898e-06 1.82815e-05 -6.93051e-06 2.18113e-05
67 1 10.2102 0.187307 8.381 -7.60781e-06 1.61777e-05 -9.11333e-06 2.00661e-05
68 1 11.3668 1.23379 10.4821 9.04637e-06 1.53332e-06 -5.28404e-06 1.05882e-05
69 1 10.8703 3.25754 5.152 1.80299e-05 1.43473e-05 2.08989e-05 3.11076e-05
70 1 6.62712 11.7262 5.77424 1.64344e-05 3.98264e-05 1.05902e-05 4.43665e-05
71 1 10.4128 10.0987 4.26696 -6.32321e-06 -5.11949e-05 -4.94997e-05 7.14921e-05
72 1 5.76055 6.17944 8.439 1.40548e-05 -1.66037e-05 1.46284e-05 2.62147e-05
73 1 7.49815 5.29102 3.03808 -2.4568e-05 1.20893e-05 8.48134e-06 2.86648e-05
74 1 1.38973 4.8785 0.208646 -9.52623e-06 1.45236e-06 -1.56351e-05 1.83662e-05
75 1 0.333488 8.81312 2.39644 -2.80963e-05 -5.09548e-05 -4.13731e-05 7.1397e-05
76 1 11.3289 8.48592 6.03728 3.83389e-07 -2.71695e-05 -1.98613e-05 3.36571e-05
77 1 1.05482 9.44691 8.25546 3.68161e-05 -4.1671e-07 2.86334e-05 4.6642e-05
78 1 11.0529 10.6058 10.2765 -1.31007e-05 -1.57735e-05 1.29368e-07 2.05048e-05
79 1 4.57169 0.31037 1.87026 -3.47025e-05 2.05472e-06 3.10981e-06 3.49021e-05
80 1 1.98191 7.79875 9.98238 1.4374e-05 5.91666e-05 -3.59524e-06 6.09937e-05
81 1 3.62108 1.96849 0.156613 -9.29478e-06 -1.2445e-05 7.93037e-06 1.74402e-05
82 1 3.2483 1.6164 3.69751 3.12284e-05 2.97442e-06 -2.26207e-05 3.8675e-05
83 1 4.39043 2.56906 5.85144 -1.94728e-06 1.66664e-05 -2.56075e-05 3.06155e-05
84 1 2.82894 1.20714 7.26885 -2.73593e-05 -3.88097e-06 5.14191e-06 2.81075e-05
85 1 4.00154 2.23055 9.39485 -6.3862e-06 1.36659e-05 -9.86588e-06 1.80243e-05
86 1 2.45746 0.942694 10.8061 6.48148e-06 1.5598e-05 -2.80643e-06 1.71226e-05
87 1 6.32279 4.24544 0.929383 1.76255e-05 -1.67807e-05 -2.56087e-05 3.53278e-05
88 1 4.77769 2.94677 2.31987 -1.51858e-05 8.78126e-06 -1.70443e-05 2.44586e-05
89 1 3.472 4.28908 4.09449 2.47143e-05 3.65787e-05 -4.49735e-06 4.43737e-05
90 1 0.843355 6.85635 7.79031 -1.02395e-05 1.66126e-05 -8.45971e-06 2.12695e-05
91 1 2.56838 5.97629 2.26927 -5.15356e-06 -3.96907e-05 -1.42125e-06 4.00491e-05
92 1 1.2482 7.19756 4.17277 -7.71022e-06 -1.75175e-05 -3.26317e-05 3.78304e-05
93 1 11.0241 1.00922 1.22384 1.7434e-05 5.26302e-05 1.06456e-05 5.64554e-05
94 1 2.3163 3.28447 1.97356 1.70773e-05 5.99361e-06 7.98451e-06 1.97816e-05
95 1 0.781688 1.96279 3.36225 -8.04436e-06 -5.20995e-06 3.45214e-05 3.58271e-05
96 1 1.92924 2.91548 5.50616 1.833e-05 8.773e-07 2.60994e-05 3.19051e-05
97 1 0.371315 1.53373 6.90915 -1.68776e-05 -6.63751e-07 -2.43403e-05 2.96268e-05
98 1 3.7099 6.87785 4.52334 -1.26192e-05 1.70144e-05 -1.66871e-05 2.69666e-05
99 1 1.52556 2.52936 9.04829 6.46835e-06 9.68093e-06 -2.93717e-05 3.15952e-05
100 1 3.86017 4.56436 0.564163 -2.59623e-05 -3.10276e-05 -8.53866e-06 4.13481e-05
101 1 1.01708 4.63336 3.73874 -7.25117e-06 2.21111e-05 1.49812e-05 2.76752e-05
102 1 2.15837 5.55963 5.94627 7.80932e-06 1.30336e-05 6.59813e-06 1.65649e-05
103 1 0.614497 4.20144 7.31358 1.42223e-05 -1.62949e-06 -1.11583e-05 1.81504e-05
104 1 1.76775 5.16169 9.45846 -2.37113e-05 -3.53226e-05 -1.32715e-05 4.4565e-05
105 1 0.228573 3.8557 10.849 -3.2716e-05 -1.18288e-06 -1.85539e-05 3.76295e-05
106 1 0.918726 11.8303 12.2411 -4.57485e-05 -1.37138e-05 5.08644e-05 6.97723e-05
107 1 8.63511 6.21765 5.24899 -6.65582e-06 -2.96381e-05 -9.53502e-06 3.18376e-05
108 1 4.61345 5.22153 6.2819 -3.54299e-06 2.5721e-05 -1.3304e-05 2.91739e-05
109 1 4.24261 4.85098 9.81088 -2.45949e-05 -3.53403e-05 -4.35362e-06 4.32759e-05
110 1 7.0357 12.0695 2.18656 2.21233e-05 2.2084e-05 -5.13699e-06 3.16786e-05
111 1 6.08227 1.64624 0.504779 -1.63202e-05 -1.88442e-05 -1.8868e-05 3.12643e-05
112 1 7.24204 2.62165 2.67206 1.96994e-05 4.9879e-05 4.70716e-06 5.38343e-05
113 1 5.71208 1.26935 4.02784 -1.81009e-05 2.67191e-05 -1.8274e-05 3.70876e-05
114 1 6.85669 2.22611 6.19505 1.45736e-06 -2.8588e-06 -2.61533e-05 2.63495e-05
115 1 5.30047 0.884892 7.62932 3.6181e-06 1.36755e-05 3.21226e-05 3.50995e-05
116 1 1.25442 11.9524 8.74582 -5.40055e-07 -3.77587e-05 -4.74235e-05 6.06217e-05
117 1 6.4719 1.90924 9.74937 1.65564e-05 -1.5732e-05 -8.08771e-07 2.28531e-05
118 1 8.7874 3.93062 1.28134 2.20478e-05 1.07036e-05 -4.0202e-06 2.48362e-05
119 1 5.932 3.94068 4.44883 2.10789e-05 2.82703e-05 -2.35084e-05 4.23813e-05
120 1 7.08012 4.8768 6.61455 -1.67222e-05 -9.98638e-06 -5.65514e-05 5.98115e-05
121 1 5.54529 3.54006 7.99416 4.78936e-06 1.97318e-05 2.39925e-05 3.14312e-05
122 1 6.7049 4.50464 10.1433 -2.73784e-05 7.55098e-06 4.62431e-05 5.4268e-05
123 1 5.16322 3.24135 11.5622 -4.45492e-06 -2.08893e-05 -6.89116e-06 2.24432e-05
124 1 4.93516 0.64247 11.1575 2.26376e-05 -3.40828e-05 4.5318e-05 6.10559e-05
125 1 3.07768 3.86994 7.65968 -9.96521e-06 -2.05721e-05 -1.0721e-05 2.52479e-05
126 1 1.6992 0.272284 5.05561 2.03747e-05 3.01013e-05 -3.00902e-05 4.71872e-05
127 1 2.12641 10.2888 10.5896 4.96752e-05 -1.70105e-05 1.56553e-05 5.47911e-05
128 1 2.69673 3.54456 11.1996 2.35461e-06 -3.69817e-05 -1.96635e-05 4.19505e-05
129 1 5.02719 5.63455 2.65256 5.04095e-06 6.39576e-06 2.02091e-06 8.39053e-06
130 1 6.16643 6.5476 4.88524 8.83706e-06 1.65587e-05 8.42024e-06 2.05715e-05
131 1 3.30462 6.52871 8.13417 -3.22742e-06 1.35036e-05 -2.03824e-06 1.40327e-05
132 1 4.45229 7.49307 10.3385 2.65955e-05 8.17018e-07 1.95126e-05 3.29959e-05
133 1 2.92711 6.10715 11.613 -1.05715e-05 -2.82639e-05 -3.68901e-05 4.76601e-05
134 1 2.09559 0.670033 1.55799 -4.91447e-06 -6.22521e-06 1.34722e-05 1.56335e-05
135 1 1.66708 7.66577 0.399674 1.11757e-05 -1.86451e-05 -4.26908e-06 2.21531e-05
136 1 2.38533 8.15951 6.38481 8.88974e-06 -2.67389e-05 2.75385e-06 2.83122e-05
137 1 3.5148 9.12118 8.59237 3.70662e-08 -1.09919e-05 2.45276e-05 2.6878e-05
138 1 10.7784 10.4598 0.688458 -5.05017e-06 1.22823e-05 -6.72342e-06 1.4885e-05
139 1 0.551466 11.4031 2.86912 -2.61607e-05 -1.87975e-05 4.57427e-06 3.2537e-05
140 1 1.47461 9.77373 4.61138 6.26528e-06 -3.44767e-05 -3.75029e-05 5.1326e-05
141 1 2.60621 10.7401 6.8264 2.86405e-05 1.4502e-05 -2.19045e-05 3.88637e-05
142 1 2.80839 8.49562 2.7464 2.06342e-05 5.01017e-06 1.08625e-05 2.38509e-05
143 1 0.150736 11.0658 6.4722 1.73358e-06 -9.09431e-06 -5.09744e-05 5.18083e-05
