ITEM: TIMESTEP
0
ITEM: NUMBER OF ATOMS
118
ITEM: BOX BOUNDS pp pp pp
0.0000000000000000e+00 1.1436527999999999e+01
0.0000000000000000e+00 1.1745825000000000e+01
0.0000000000000000e+00 1.1261291999999999e+01
ITEM: ATOMS id type x y z fx fy fz v_fmag
1 1 0.819711 8.94804 2.17188 2.45927e-05 4.16904e-06 8.54333e-06 2.63661e-05
2 1 7.86244 9.69245 8.39108 -3.36925e-05 -2.79261e-05 -1.06969e-05 4.50497e-05
3 1 9.20156 5.9979 5.3677 -2.58685e-06 -2.60242e-05 -3.5366e-05 4.39853e-05
4 1 5.84119 7.95543 8.82063 -5.13081e-06 7.6836e-07 1.14998e-05 1.26159e-05
5 1 8.47423 8.07526 6.49931 -1.03241e-06 1.17787e-05 2.11363e-05 2.42188e-05
6 1 5.25107 4.80763 3.40978 -1.12327e-06 3.36712e-05 3.29694e-05 4.7138e-05
7 1 10.5536 6.91106 3.38578 1.71883e-05 -1.89418e-05 3.40069e-05 4.25523e-05
8 1 5.39396 5.50594 8.93895 2.11112e-05 2.34282e-05 4.83249e-05 5.77049e-05
9 1 7.0189 5.89303 7.00271 -2.85136e-05 -3.22718e-05 -5.26551e-05 6.80225e-05
10 1 5.14096 4.61187 5.9596 -8.71627e-06 2.15005e-07 -8.37379e-06 1.20888e-05
11 1 8.3153 4.66474 0.689049 1.4021e-05 -5.33774e-05 -9.16268e-06 5.59437e-05
12 1 5.59604 3.41685 10.2473 6.03032e-06 -2.61738e-05 -2.45357e-05 3.6379e-05
13 1 5.24224 1.33628 9.00335 7.94991e-06 -5.70665e-06 4.13603e-05 4.25023e-05
14 1 6.34407 3.29349 7.64505 -8.93604e-06 -3.58365e-06 -2.17283e-05 2.37658e-05
15 1 6.83364 3.24887 2.32144 2.80673e-05 -1.1489e-05 3.16552e-05 4.38386e-05
16 1 7.74955 2.46102 11.1016 4.17634e-05 8.80176e-06 1.58801e-05 4.55394e-05
17 1 7.30955 0.112473 9.85431 8.25858e-06 -2.9751e-05 -1.25636e-05 3.33342e-05
18 1 8.28057 2.16561 6.22018 -5.04928e-05 -1.38692e-05 6.1997e-05 8.11511e-05
19 1 8.56649 2.29181 3.80771 -2.93486e-06 3.72614e-05 -3.12856e-05 4.87423e-05
20 1 7.82737 0.977787 1.84474 6.49878e-07 2.09644e-05 -3.15951e-05 3.79233e-05
21 1 4.97939 11.1199 5.43561 4.15245e-05 -8.02553e-06 -5.89124e-05 7.25215e-05
22 1 6.0932 11.0285 1.80089 -2.74746e-05 -1.71878e-05 1.97319e-05 3.79423e-05
23 1 6.03735 9.35619 3.82008 -8.70628e-06 1.92104e-05 -6.9858e-06 2.2218e-05
24 1 6.55996 0.578708 6.99956 6.30216e-06 -4.16434e-06 3.86993e-05 3.94296e-05
25 1 5.99349 8.8527 6.50732 6.40212e-06 -3.10681e-05 2.46879e-05 4.01959e-05
26 1 7.31223 8.56186 1.59487 -2.52513e-05 -1.74526e-05 -1.20393e-05 3.29722e-05
27 1 10.0822 10.7553 9.55778 1.61244e-06 1.04879e-05 5.04327e-05 5.1537e-05
28 1 9.83834 9.08429 1.78676 -4.57626e-05 -9.94584e-06 -5.39656e-06 4.71408e-05
29 1 7.737 10.3502 5.73479 -2.65654e-05 8.71105e-06 -1.32042e-05 3.09185e-05
30 1 8.95423 0.111378 7.62155 1.57025e-05 6.42508e-06 -5.93552e-05 6.17324e-05
31 1 10.1246 3.62847 5.24831 1.3344e-05 5.72973e-05 -3.18599e-05 6.69036e-05
32 1 9.89405 3.61627 10.0472 -1.04098e-05 1.45146e-05 -4.53024e-05 4.86965e-05
33 1 11.11 1.75297 3.76227 -7.68967e-06 -1.52158e-05 -1.84123e-05 2.50931e-05
34 1 9.42794 0.186004 4.84387 1.16701e-06 -3.92188e-05 1.59653e-05 4.236e-05
35 1 11.3472 10.6728 0.453136 -1.49411e-05 2.54629e-05 9.33392e-06 3.09632e-05
36 1 10.6645 9.75768 4.0296 -2.11849e-05 4.00323e-06 -4.10205e-05 4.63411e-05
37 1 8.95865 8.62198 10.5976 -3.99584e-05 2.82072e-05 3.87404e-05 6.2395e-05
38 1 10.1914 10.1231 6.47028 -1.04126e-05 1.15535e-05 7.01473e-06 1.7062e-05
39 1 7.27096 6.80088 11.0114 -1.61438e-05 -1.43338e-05 -1.61691e-06 2.16494e-05
40 1 10.6231 6.14267 7.5729 1.85661e-05 2.29675e-05 -1.85926e-05 3.48983e-05
41 1 9.25439 4.69211 3.08173 8.04088e-05 -7.43122e-05 1.34551e-05 0.000110313
42 1 9.45996 6.78655 1.1645 1.79872e-05 -2.98317e-05 -3.78155e-05 5.14147e-05
43 1 6.48428 9.51617 10.6321 -6.0968e-05 2.29284e-05 2.20646e-05 6.87724e-05
44 1 7.67318 4.69951 9.52431 8.69432e-06 -1.98484e-05 -3.29622e-05 3.94469e-05
45 1 7.43012 4.38795 4.84934 7.8752e-06 1.38773e-05 -8.92505e-06 1.82827e-05
46 1 10.8549 4.69611 0.813973 1.80359e-05 -8.28527e-06 2.78425e-06 2.00422e-05
47 1 8.24931 2.18457 8.7381 2.47567e-05 2.16017e-05 -3.65206e-06 3.30585e-05
48 1 8.90563 4.29915 7.40151 -1.52813e-05 2.62627e-05 -1.32836e-05 3.31617e-05
49 1 9.69029 2.68258 1.63464 -1.05806e-05 4.09511e-05 9.03002e-06 4.3249e-05
50 1 0.479598 1.72512 1.0833 5.44609e-05 -3.68719e-05 -2.5727e-05 7.06216e-05
51 1 9.77711 0.984644 11.0908 2.05051e-05 -1.35864e-05 -3.70684e-06 2.48755e-05
52 1 10.7188 1.56801 6.50455 4.63224e-05 -5.11369e-06 5.83396e-05 7.46687e-05
53 1 10.136 0.0497792 2.29477 3.31617e-05 1.45001e-05 9.70022e-06 3.74706e-05
54 1 6.91331 0.36467 4.19336 3.34019e-06 -5.25604e-05 1.44468e-05 5.46119e-05
55 1 8.45156 10.7277 0.518192 2.18675e-05 -4.96557e-06 -4.53252e-05 5.05689e-05
56 1 8.24583 10.4219 3.11952 -4.14557e-05 3.90195e-06 2.71561e-05 4.97117e-05
57 1 8.24483 7.06382 8.72801 8.29993e-05 3.05043e-05 -1.5595e-06 8.84411e-05
58 1 3.5214 9.01355 7.58733 -1.33998e-05 8.34323e-06 -5.57927e-05 5.79827e-05
59 1 8.44336 8.1215 3.9777 -3.53139e-05 -7.833e-06 -4.29006e-05 5.6115e-05
60 1 3.30383 6.91387 9.09749 3.4408e-05 -7.21467e-05 1.00528e-05 8.05613e-05
61 1 0.940497 7.45431 8.85391 -1.27699e-05 -5.78031e-06 -1.17479e-05 1.82892e-05
62 1 0.414807 5.34536 5.44004 2.34998e-06 -7.38668e-06 -1.14658e-05 1.38402e-05
63 1 3.44382 5.88101 1.58949 -9.10765e-05 -2.68002e-05 5.12212e-05 0.000107874
64 1 0.981301 3.23211 10.0566 -5.08559e-05 -2.16426e-05 7.48321e-06 5.57739e-05
65 1 10.7526 1.58479 8.94724 2.65866e-05 -2.08898e-05 -1.75962e-05 3.81164e-05
66 1 11.354 3.70013 7.5954 1.18517e-06 -4.50068e-05 -4.6255e-06 4.52594e-05
67 1 2.3772 4.8262 3.56044 6.95204e-05 6.67964e-05 -5.17894e-06 9.65488e-05
68 1 1.79808 3.94846 1.0711 2.47989e-05 -6.30516e-06 4.00378e-05 4.7516e-05
69 1 1.22331 0.56527 10.3036 -2.01137e-05 2.9255e-05 1.40014e-05 3.81635e-05
70 1 3.12492 11.591 8.90986 1.70866e-05 -2.68221e-05 -1.97496e-05 3.74356e-05
71 1 3.76208 3.03148 4.53555 -2.56126e-06 -4.49642e-05 -1.11737e-05 4.64025e-05
72 1 1.99345 2.3408 2.96084 2.71257e-05 1.72888e-05 2.68711e-05 4.19138e-05
73 1 1.16469 5.78792 10.6744 5.65112e-05 4.43958e-06 -6.09819e-06 5.70124e-05
74 1 0.551035 11.6596 5.28101 -2.5141e-05 3.37313e-05 -2.11418e-05 4.70834e-05
75 1 2.7132 11.1219 6.55001 4.95546e-06 -8.48905e-05 2.82717e-05 8.96117e-05
76 1 1.76769 9.72717 4.45965 -5.28257e-05 -2.90127e-05 -2.14906e-05 6.39854e-05
77 1 2.42847 10.3271 0.649977 4.7441e-06 1.92451e-05 -1.09276e-05 2.26339e-05
78 1 1.30004 9.78739 9.62324 -1.3703e-05 -2.02253e-05 7.09923e-06 2.54408e-05
79 1 3.08632 8.22368 2.69258 -5.38215e-05 1.9728e-05 7.46939e-05 9.41548e-05
80 1 10.9453 7.82272 5.72916 2.43348e-05 -4.14489e-05 -4.09253e-06 4.82385e-05
81 1 2.40409 7.83227 0.198454 2.19796e-05 6.06945e-05 -6.24759e-07 6.45547e-05
82 1 0.976998 6.40111 1.8402 2.18095e-06 4.01617e-06 2.14362e-05 2.19179e-05
83 1 0.141586 4.10899 3.13979 -5.83523e-05 1.10602e-05 -2.05254e-05 6.2838e-05
84 1 1.83116 1.93762 7.94482 2.34172e-05 2.14604e-05 -1.5008e-05 3.51305e-05
85 1 1.31696 2.70342 5.45836 -1.24141e-05 2.5937e-05 2.1428e-05 3.58608e-05
86 1 0.502919 11.4739 7.88385 -2.19413e-05 2.0539e-06 -1.30663e-05 2.56197e-05
87 1 1.20288 11.5029 2.69318 -7.18004e-06 -3.9081e-05 3.06022e-05 5.01535e-05
88 1 10.1036 6.14738 10.0555 1.34902e-05 -1.39774e-05 -1.60872e-05 2.5222e-05
89 1 4.83137 7.09267 11.0565 -1.22799e-05 2.99295e-05 -3.76516e-05 4.96408e-05
90 1 2.0559 7.01836 6.61402 7.11167e-06 4.8194e-06 6.39011e-06 1.07068e-05
91 1 6.34173 6.8981 4.84373 2.43834e-05 -4.97054e-06 -2.12391e-05 3.27163e-05
92 1 3.82832 6.46902 4.54538 -1.47695e-05 -5.092e-05 -4.60782e-05 7.02438e-05
93 1 7.42623 6.12874 2.6206 -9.7549e-05 3.0601e-05 -2.63324e-05 0.000105573
94 1 1.77102 5.0591 8.39061 9.00972e-06 1.66453e-05 -1.95139e-05 2.71852e-05
95 1 4.56184 6.80432 6.89827 -1.96365e-05 1.73246e-05 -6.57299e-06 2.69988e-05
96 1 2.71966 4.64553 6.1687 -8.82802e-06 -2.03367e-05 1.24405e-05 2.54221e-05
97 1 5.78764 5.04899 0.851938 -9.82842e-07 2.84494e-05 -8.1682e-06 2.96151e-05
98 1 3.47827 4.76566 10.5593 -1.54632e-05 -1.29112e-05 -1.62823e-05 2.59022e-05
99 1 3.28464 2.16049 10.4263 1.52257e-05 2.63992e-06 1.96916e-05 2.5031e-05
100 1 3.84355 3.57125 8.25617 -1.22449e-05 -2.18449e-05 1.61579e-05 2.9803e-05
101 1 4.1039 3.3111 1.68217 4.18305e-06 5.61803e-06 -2.20257e-05 2.31126e-05
102 1 5.59905 1.58287 0.654624 -2.35948e-05 7.36969e-06 3.22532e-05 4.06361e-05
103 1 1.44492 7.249 4.19978 1.55182e-05 -2.55959e-05 9.24637e-07 2.99469e-05
104 1 4.68047 11.3684 10.8734 -6.96966e-06 3.51601e-05 -1.28257e-05 3.80698e-05
105 1 6.02136 2.3807 5.15688 -2.33882e-05 3.32856e-05 2.95976e-05 5.03086e-05
106 1 4.91391 1.2936 3.07696 -2.69305e-05 1.4326e-05 -1.80151e-05 3.54264e-05
107 1 2.86459 0.660027 4.50275 -2.48627e-05 5.73652e-05 4.19228e-05 7.52758e-05
108 1 3.11066 0.866057 1.30229 -5.5048e-06 2.32616e-05 2.34104e-06 2.40184e-05
109 1 3.81061 10.644 3.01579 2.61657e-05 -1.23599e-05 -1.38151e-05 3.20666e-05
110 1 5.42387 10.563 8.37378 2.01166e-05 2.97068e-05 -5.37437e-06 3.62775e-05
111 1 3.90807 8.82701 5.11878 -9.42398e-06 1.80608e-05 2.84888e-05 3.5023e-05
112 1 4.67954 9.19571 1.09679 4.94834e-05 3.32876e-05 -4.42788e-05 7.42785e-05
113 1 3.84027 9.24808 9.9779 2.1202e-05 5.99945e-05 8.08248e-05 0.000102866
114 1 1.08177 9.26575 6.97204 -2.70984e-05 2.18149e-05 3.23272e-05 4.74896e-05
115 1 5.31454 7.24347 2.4988 4.15698e-05 -2.55205e-05 6.61176e-06 4.92246e-05
116 1 11.3614 8.12279 11.1358 2.57301e-05 1.23898e-05 -4.45375e-06 2.8903e-05
117 1 4.0996 1.56993 6.6841 -1.89614e-05 2.06089e-05 2.2886e-05 3.61667e-05
118 1 10.2728 8.55934 8.39679 3.68607e-05 -1.13581e-05 5.25536e-07 3.85745e-05
