ITEM: TIMESTEP
0
ITEM: NUMBER OF ATOMS
143
ITEM: BOX BOUNDS pp pp pp
0.0000000000000000e+00 1.1464695000000001e+01
0.0000000000000000e+00 1.1317634999999999e+01
0.0000000000000000e+00 1.1648808000000001e+01
ITEM: ATOMS id type x y z fx fy fz v_fmag
1 1 1.91363 6.37515 5.36216 -4.35301e-05 1.75491e-05 1.06108e-05 4.81189e-05
2 1 6.03555 7.64731 0.770797 -4.94094e-05 -3.98731e-05 8.92547e-06 6.41156e-05
3 1 9.49822 9.48173 2.75208 -3.82427e-05 1.51399e-05 -1.41357e-06 4.11548e-05
4 1 8.14669 8.15522 4.36493 1.41177e-05 8.45415e-05 1.2674e-05 8.66441e-05
5 1 9.04944 9.6534 5.98359 -4.93751e-05 1.03379e-06 2.94998e-05 5.75257e-05
6 1 7.75652 8.45399 7.62251 2.43081e-05 -8.53592e-06 2.9346e-05 3.90504e-05
7 1 8.69666 10.0768 9.1103 -7.81455e-06 -3.86699e-05 -2.02671e-05 4.43529e-05
8 1 5.1184 6.04658 10.87 -2.32753e-05 -8.3885e-06 -6.69559e-06 2.56308e-05
9 1 4.89879 8.54872 10.5065 -2.17921e-05 -2.77856e-05 2.67834e-06 3.54134e-05
10 1 7.88655 10.4995 4.00395 -5.54273e-05 -8.35017e-05 -5.23126e-05 0.000113055
11 1 7.51474 10.9586 7.13874 2.77477e-05 2.13507e-05 6.26022e-06 3.55665e-05
12 1 4.68975 10.9888 10.1389 -1.80102e-05 -1.35471e-05 1.49578e-05 2.70486e-05
13 1 9.07386 0.79805 2.73977 3.87689e-05 3.409e-05 -2.95202e-05 5.94693e-05
14 1 8.7492 0.809715 5.39477 -0.00013609 0.000221781 0.000122521 0.000287609
15 1 9.92906 2.28247 6.81884 6.64404e-06 -3.02716e-05 2.12481e-05 3.75766e-05
16 1 8.25424 10.4963 0.915959 5.58413e-06 9.86968e-05 -1.83942e-05 0.000100551
17 1 8.49751 1.18155 8.688 2.8057e-05 2.86291e-05 3.06881e-05 5.04835e-05
18 1 6.47005 7.23102 9.23743 1.78275e-07 -3.29899e-05 8.70604e-06 3.41198e-05
19 1 9.31463 7.23436 6.35328 5.9413e-06 1.97189e-05 2.82225e-05 3.49377e-05
20 1 7.33932 2.06283 6.67695 7.49016e-05 -0.00012073 -5.80751e-05 0.000153488
21 1 6.02051 0.869109 8.44397 -2.31476e-05 -9.29416e-06 1.43795e-05 2.87917e-05
22 1 6.95529 2.38033 10.0495 1.74513e-05 2.06212e-05 -9.83175e-06 2.8748e-05
23 1 5.59344 1.19813 0.144248 2.63499e-05 -1.29376e-06 2.38865e-05 3.55887e-05
24 1 6.53216 2.72155 1.74547 4.75878e-05 6.83372e-05 -6.87964e-05 0.000108016
25 1 7.50037 4.35822 3.11964 6.00812e-05 -5.86294e-06 3.80478e-06 6.04863e-05
26 1 5.57768 5.63923 7.60406 -1.14627e-05 -4.72271e-05 -3.56262e-05 6.02579e-05
27 1 6.40143 2.71115 4.37493 0.000107345 -7.36322e-05 -7.8023e-05 0.000151764
28 1 5.83005 3.28001 8.02419 -2.70834e-05 3.20301e-05 7.96874e-06 4.26959e-05
29 1 6.73466 4.7839 9.64533 2.12705e-05 1.91865e-05 -1.17809e-05 3.09734e-05
30 1 5.36306 3.58196 11.3395 6.12508e-05 -2.74688e-05 -2.54667e-05 7.17966e-05
31 1 6.29956 5.19219 1.15278 7.90985e-06 6.41166e-06 5.37489e-05 5.47049e-05
32 1 7.22815 6.71906 2.71492 -3.34677e-05 1.08207e-05 1.42409e-05 3.79471e-05
33 1 5.93617 5.4632 4.40184 2.6945e-05 9.69374e-06 6.46893e-06 2.93572e-05
34 1 7.17997 4.35226 6.1642 2.18293e-07 2.86743e-05 -8.94548e-05 9.39384e-05
35 1 6.34973 0.504109 5.07757 -1.12975e-05 -9.08101e-06 5.67526e-05 5.85744e-05
36 1 9.39973 2.67989 10.341 1.28874e-05 -8.77398e-06 -3.38864e-05 3.73009e-05
37 1 9.03479 3.02232 2.06896 -2.38751e-05 2.62148e-05 -1.52186e-05 3.85855e-05
38 1 10.0304 11.2972 7.36604 -5.40506e-06 6.78198e-06 6.63308e-05 6.68953e-05
39 1 7.15735 11.2998 10.4571 -3.28974e-05 -2.19522e-05 -1.66392e-05 4.29069e-05
40 1 0.0250406 0.994854 2.83802 -3.5683e-05 -3.05475e-06 1.75949e-05 3.99022e-05
41 1 10.9418 1.47366 9.0103 3.91772e-05 -6.07464e-06 4.89124e-05 6.29617e-05
42 1 10.5103 1.79191 0.72141 3.62468e-06 4.66693e-05 3.79594e-05 6.02668e-05
43 1 0.0176043 3.28983 2.34551 6.1373e-05 -2.18334e-05 1.51085e-05 6.68701e-05
44 1 10.4081 10.9756 4.47604 0.000146912 -7.70525e-05 -0.000130249 0.000210915
45 1 11.4417 2.53353 4.80698 -2.33464e-05 -6.81111e-06 7.61181e-06 2.5483e-05
46 1 10.3408 4.19648 0.308919 3.68404e-06 3.99136e-05 -4.08987e-06 4.02914e-05
47 1 11.2779 5.76666 1.85184 2.96584e-05 2.66297e-05 3.25391e-06 3.99919e-05
48 1 10.8797 6.14147 5.05208 4.31137e-06 5.354e-05 2.3611e-05 5.86736e-05
49 1 10.4999 6.21785 8.20207 9.15448e-06 -1.93541e-05 -7.18342e-06 2.25829e-05
50 1 10.1133 6.68409 11.5108 2.41263e-05 -2.00403e-06 -3.3618e-05 4.14278e-05
51 1 11.0251 8.2678 1.4322 -1.16875e-06 5.31027e-07 -1.37848e-05 1.38444e-05
52 1 10.729 3.83943 8.57077 4.17847e-05 3.08482e-05 -2.62632e-05 5.82008e-05
53 1 8.06705 1.49089 0.470776 4.51691e-05 4.02e-05 7.63526e-06 6.09474e-05
54 1 10.6994 10.7645 1.14744 -4.96051e-05 1.44032e-05 -1.27475e-05 5.32035e-05
55 1 10.2371 8.75925 7.93454 -2.2646e-05 -2.35048e-05 2.11029e-05 3.8867e-05
56 1 10.013 4.59349 3.54669 1.74083e-05 3.34493e-05 -5.20189e-05 6.42485e-05
57 1 8.81493 2.9767 4.66456 7.61209e-05 -6.92656e-05 9.10077e-06 0.00010332
58 1 9.66329 4.59697 6.4087 1.34993e-05 2.53503e-05 -1.81679e-05 3.39844e-05
59 1 8.32688 3.5474 8.25932 1.55655e-05 -3.36352e-05 2.69314e-05 4.58139e-05
60 1 9.1858 5.08491 9.94379 1.19817e-05 2.42951e-06 -1.74734e-05 2.13257e-05
61 1 7.8705 3.88971 0.0220709 2.06994e-05 -4.48588e-06 -2.00472e-07 2.11808e-05
62 1 7.37951 8.89367 10.8353 -3.38504e-05 -4.47653e-05 -1.12725e-05 5.72437e-05
63 1 8.82128 5.48882 1.50508 -5.3867e-05 -1.38673e-05 1.21213e-05 5.69288e-05
64 1 8.41054 5.78218 4.71442 1.65742e-05 -1.36131e-05 -3.77749e-05 4.34392e-05
65 1 8.05273 5.90856 7.8938 2.34759e-05 8.12713e-06 -4.03338e-05 4.73707e-05
66 1 8.93783 7.54129 9.53916 -2.98282e-05 -2.99319e-05 -3.15043e-05 5.27083e-05
67 1 7.63472 6.38364 11.2035 -1.81933e-05 3.91927e-05 -2.44234e-05 4.96343e-05
68 1 8.5645 7.96923 1.10682 -3.66605e-05 4.79207e-05 4.54668e-06 6.05067e-05
69 1 10.6199 8.51364 4.69456 -3.43998e-05 3.72589e-05 -4.44074e-05 6.74062e-05
70 1 9.71666 7.02669 3.06115 9.29232e-06 4.17776e-05 4.09659e-05 5.92446e-05
71 1 9.83492 9.19606 11.1202 -6.46887e-05 4.40976e-07 3.04508e-05 7.14987e-05
72 1 6.62393 0.505993 2.41416 -6.7504e-05 6.0695e-05 2.70822e-05 9.47319e-05
73 1 5.06792 10.6507 6.85263 -4.79274e-05 7.80905e-06 4.70591e-05 6.76209e-05
74 1 0.802535 2.60467 7.19521 -3.16236e-06 -1.04163e-05 8.23245e-06 1.36482e-05
75 1 1.70019 4.15641 8.90142 3.8791e-06 7.01742e-06 -4.86448e-05 4.93012e-05
76 1 0.394181 2.98411 10.6367 1.26207e-05 8.49044e-06 -1.39049e-06 1.52743e-05
77 1 1.3253 4.50552 0.599793 3.67902e-05 -8.04586e-05 -4.63642e-06 8.85924e-05
78 1 2.24757 6.06219 2.17426 2.38617e-06 4.71506e-05 2.07295e-05 5.15614e-05
79 1 0.903136 4.81678 3.91154 2.23319e-05 -4.07518e-05 5.43932e-06 4.67869e-05
80 1 2.23762 3.69495 5.47757 3.2478e-05 -2.01379e-05 -6.87854e-06 3.88287e-05
81 1 4.38696 6.64363 5.71173 -4.42914e-05 2.19882e-05 -1.14784e-05 5.07638e-05
82 1 1.49712 6.56577 8.5453 3.41324e-06 -4.46381e-05 -1.57431e-05 4.74558e-05
83 1 0.167584 5.39498 10.2353 4.02675e-06 1.07316e-06 -1.34545e-05 1.40851e-05
84 1 1.09808 6.9775 0.174008 3.62429e-06 1.79848e-06 1.45718e-05 1.51231e-05
85 1 4.42995 8.85485 2.06392 -5.48797e-05 1.54657e-05 2.4767e-05 6.21641e-05
86 1 3.18748 7.6196 3.71866 -1.84814e-05 2.79754e-06 3.67535e-06 1.90499e-05
87 1 4.1186 9.07304 5.32798 -1.68238e-06 1.83617e-05 2.78068e-06 1.86471e-05
88 1 0.599165 4.94567 6.78286 1.22845e-05 9.2046e-06 2.16745e-06 1.55026e-05
89 1 2.822 7.86457 6.97921 -2.17576e-05 2.38386e-05 2.46739e-05 4.0626e-05
90 1 2.35198 1.2996 3.20312 2.59316e-06 1.8557e-05 5.7188e-05 6.01793e-05
91 1 1.5259 2.10151 1.0179 1.08181e-05 9.73597e-06 -1.29608e-05 1.94885e-05
92 1 1.9919 8.56106 1.75154 -2.75911e-05 -9.48337e-06 1.32916e-07 2.91757e-05
93 1 0.719334 7.32834 3.40267 1.55823e-05 2.29131e-05 1.09135e-05 2.97812e-05
94 1 1.62729 8.8132 5.02396 -3.9993e-05 6.41898e-07 -3.38877e-05 5.24235e-05
95 1 0.352087 7.53839 6.67922 -2.98817e-05 7.44029e-06 -1.48374e-06 3.08298e-05
96 1 1.29091 9.1084 8.24236 2.3107e-05 4.15016e-06 1.21536e-05 2.64361e-05
97 1 0.836062 9.49092 11.4353 8.44518e-06 -8.53749e-08 -2.50244e-06 8.80855e-06
98 1 2.43642 3.62649 2.66649 4.72854e-05 -2.9329e-05 2.70057e-05 6.18499e-05
99 1 0.448211 9.81788 3.08594 -5.0678e-05 -1.02583e-05 3.48084e-05 6.23307e-05
100 1 1.7095 11.057 1.44956 6.67544e-05 -2.47063e-05 5.07999e-06 7.13608e-05
101 1 1.19494 0.0762025 4.84238 -0.000107723 4.98423e-05 -2.3692e-05 0.000121036
102 1 2.50076 1.47588 6.0663 3.4624e-05 6.91542e-06 2.26308e-05 4.1938e-05
103 1 1.03039 0.284062 7.69173 4.78271e-06 1.83301e-05 7.87928e-05 8.10381e-05
104 1 1.94623 1.77545 9.33888 8.45707e-06 4.59731e-06 2.17939e-05 2.3825e-05
105 1 0.604308 0.583325 11.0506 7.48616e-05 3.47594e-05 8.36601e-08 8.25377e-05
106 1 0.090073 9.93349 6.3366 -6.30784e-05 3.57574e-05 -5.77258e-05 9.26808e-05
107 1 2.18907 10.6947 9.78031 4.06396e-05 -1.98102e-05 -1.58412e-05 4.79058e-05
108 1 3.75622 9.43632 8.54264 -4.53901e-05 -2.50516e-06 -1.25259e-05 4.71533e-05
109 1 3.32893 9.82718 0.159421 -3.27202e-05 -4.52246e-05 -2.97208e-05 6.32392e-05
110 1 3.47063 5.18156 4.10614 2.22555e-05 1.83685e-05 2.00449e-05 3.51356e-05
111 1 6.84846 6.92271 6.03124 2.71165e-05 3.81069e-05 -3.84847e-07 4.67717e-05
112 1 3.07222 5.31997 7.22185 8.00482e-06 -4.31275e-05 -1.07536e-05 4.5163e-05
113 1 3.97646 6.91444 8.894 -4.22038e-05 -3.59809e-05 -2.29878e-05 6.00352e-05
114 1 2.62478 5.71079 10.5382 -8.80672e-06 1.23138e-07 -2.44594e-05 2.59968e-05
115 1 3.54439 7.2975 0.471556 -3.00133e-06 -2.16574e-05 -2.3185e-05 3.18684e-05
116 1 4.73304 6.42321 2.40963 -2.17169e-05 4.89986e-06 2.89808e-05 3.65448e-05
117 1 6.96987 9.11338 2.37404 -1.69739e-05 2.91771e-05 4.82803e-05 5.89101e-05
118 1 6.58373 9.35196 5.65633 4.3702e-05 -1.16018e-05 -5.05621e-05 6.78306e-05
119 1 5.29322 8.16252 7.30802 9.83113e-06 -1.10427e-05 9.44557e-06 1.75446e-05
120 1 6.22724 9.74846 8.84648 -1.80098e-06 -4.767e-05 2.51125e-05 5.39102e-05
121 1 2.42125 8.20325 10.1771 -2.54459e-05 1.60463e-06 -4.99521e-05 5.60828e-05
122 1 5.7969 10.1756 0.563027 -7.67003e-05 6.27891e-08 2.3917e-05 8.03428e-05
123 1 5.40438 10.2138 3.66571 8.63594e-07 -3.32838e-05 -7.07822e-05 7.8222e-05
124 1 5.67192 7.85561 4.04077 -2.12249e-05 3.27947e-05 -4.01361e-05 5.6008e-05
125 1 11.4109 7.86453 9.84348 -3.26339e-05 -1.30094e-05 -8.87324e-06 3.62347e-05
126 1 3.76622 4.83303 0.881961 1.56162e-05 2.20548e-05 4.28445e-05 5.0655e-05
127 1 4.22084 4.48766 9.29557 -3.29808e-07 -2.16255e-05 -1.90839e-05 2.88438e-05
128 1 2.81907 10.0849 3.41133 -1.16835e-05 -6.29635e-06 -2.85873e-05 3.15179e-05
129 1 2.61482 10.3383 6.55376 -1.93923e-05 1.18318e-05 2.88595e-05 3.67277e-05
130 1 11.167 10.3842 9.41321 1.78559e-05 -3.32706e-05 3.89437e-06 3.79596e-05
131 1 4.19046 0.116315 1.96977 -3.16862e-05 -6.11734e-05 2.41225e-05 7.29938e-05
132 1 3.94024 0.214144 4.8155 2.48662e-05 4.8361e-06 1.3064e-05 2.85024e-05
133 1 4.92091 1.75192 6.41948 -3.53343e-05 -4.7813e-05 4.68051e-06 5.96364e-05
134 1 2.8729 3.27903 10.9646 8.00841e-06 -2.39423e-05 -4.14191e-05 4.85068e-05
135 1 3.54032 0.563948 8.12231 -1.85156e-05 -3.10434e-05 7.86792e-05 8.65849e-05
136 1 3.12074 0.894138 11.4209 2.38842e-05 -1.22937e-05 1.71622e-05 3.18768e-05
137 1 4.00688 2.39699 1.45145 7.52527e-05 -9.89758e-06 5.26578e-05 9.23784e-05
138 1 4.99788 4.0519 2.7957 3.73305e-05 -3.48362e-05 2.11427e-05 5.52642e-05
139 1 4.03437 2.50137 4.22886 4.67019e-05 -2.22737e-05 -1.70289e-05 5.44717e-05
140 1 4.72602 4.0801 5.91763 1.8457e-05 -2.13497e-05 -1.79441e-05 3.34433e-05
141 1 3.3319 2.97547 7.67857 1.27136e-05 1.62465e-05 1.54827e-05 2.57934e-05
142 1 4.46372 2.07945 9.71904 -2.19925e-05 -5.41569e-05 -1.74985e-05 6.10151e-05
143 1 9.59651 0.279149 10.7382 -3.16593e-05 3.38603e-05 2.21592e-05 5.13796e-05
