ITEM: TIMESTEP
0
ITEM: NUMBER OF ATOMS
151
ITEM: BOX BOUNDS pp pp pp
0.0000000000000000e+00 1.1396901000000000e+01
0.0000000000000000e+00 1.2680864000000000e+01
0.0000000000000000e+00 1.2228524999999999e+01
ITEM: ATOMS id type x y z fx fy fz v_fmag
1 1 0.936191 12.2348 2.39637 -2.32569e-05 -1.32031e-06 -1.2078e-05 2.62394e-05
2 1 7.79964 3.16866 7.7422 1.69696e-05 2.71496e-05 3.33995e-06 3.21905e-05
3 1 8.85019 5.13697 8.51852 -2.02341e-05 -4.71375e-05 -9.18363e-05 0.000105192
4 1 8.18973 3.48954 10.2361 1.5389e-05 2.79786e-05 5.00955e-05 5.94069e-05
5 1 6.645 6.77159 0.777925 -2.51518e-05 5.72302e-06 1.18518e-05 2.83872e-05
6 1 7.97046 7.60079 2.67365 -3.84033e-05 -5.70432e-05 -4.25607e-06 6.88974e-05
7 1 6.93908 6.25701 4.41144 2.98845e-06 -1.73852e-05 -1.36395e-05 2.22982e-05
8 1 8.13487 8.058 5.51056 -6.51248e-05 -1.21633e-05 -2.56598e-05 7.10465e-05
9 1 7.36402 6.66896 7.45458 -1.93014e-05 -6.78433e-05 1.24953e-05 7.16338e-05
10 1 8.76417 7.45483 9.29235 -5.78618e-05 3.54297e-05 -5.63611e-05 8.82033e-05
11 1 7.69665 5.8785 10.9479 -5.13891e-05 1.73259e-07 5.9806e-07 5.13929e-05
12 1 9.4779 8.90652 1.29223 -4.75368e-05 2.60221e-06 -4.57818e-05 6.60492e-05
13 1 6.51666 9.27124 4.04752 1.25873e-05 2.26543e-05 -2.42873e-05 3.5518e-05
14 1 7.64094 10.5267 5.88826 2.4577e-05 -3.02661e-05 2.2039e-05 4.4786e-05
15 1 6.87221 9.02819 7.70208 1.61491e-07 -3.07591e-05 -4.92918e-06 3.11519e-05
16 1 8.24009 9.82407 9.48884 -5.82268e-05 6.66365e-06 -4.81548e-05 7.58528e-05
17 1 8.59406 5.02163 5.89448 2.33428e-07 1.5319e-06 1.13423e-05 1.14476e-05
18 1 7.85015 8.34268 11.5184 1.34757e-05 -1.81315e-05 -1.72484e-05 2.84228e-05
19 1 7.37445 3.87302 4.10172 -2.58652e-05 -2.72441e-05 -6.9808e-05 7.92743e-05
20 1 6.79156 4.31906 0.426616 4.82123e-05 -1.68248e-05 -4.93477e-05 7.1012e-05
21 1 5.20236 8.46618 11.8093 -3.64015e-05 -2.62792e-05 1.60387e-05 4.7675e-05
22 1 5.88083 11.4283 1.54314 5.55407e-05 -2.54977e-05 6.37099e-05 8.82829e-05
23 1 4.83751 11.0439 3.79884 -4.27941e-05 2.01012e-05 2.00177e-05 5.1343e-05
24 1 6.05293 12.5268 5.43684 3.60598e-05 -8.72952e-07 2.91684e-05 4.63882e-05
25 1 3.565 10.9311 8.20101 -2.26226e-05 4.21286e-06 2.55553e-05 3.4389e-05
26 1 4.80754 12.3576 9.60786 -2.45201e-05 4.4925e-05 3.42021e-05 6.15571e-05
27 1 4.40883 10.9266 11.8253 -8.97053e-07 3.39967e-08 6.97648e-05 6.97706e-05
28 1 7.36982 0.588117 1.59418 3.25832e-05 -1.92555e-05 -4.05406e-05 5.54615e-05
29 1 7.39795 2.09146 11.9774 -2.23597e-05 -2.19547e-05 3.13541e-06 3.14928e-05
30 1 8.54325 2.69101 1.96651 -2.00451e-05 2.44705e-05 -7.03565e-05 7.71404e-05
31 1 7.50299 1.39945 3.84425 3.9092e-05 -6.29062e-06 -4.26426e-05 5.81906e-05
32 1 8.90917 2.57868 5.5225 4.51911e-05 2.46189e-05 1.83525e-05 5.46364e-05
33 1 7.39226 0.744956 7.46718 -3.40245e-05 3.40432e-05 1.46703e-05 5.03172e-05
34 1 8.93424 1.11186 9.64678 -8.30888e-06 1.55459e-05 -1.51764e-05 2.32602e-05
35 1 6.02877 0.122142 11.6149 1.58163e-05 -5.11056e-05 1.02051e-05 5.44618e-05
36 1 8.18085 5.18179 2.23052 1.99527e-05 2.21897e-05 5.11108e-06 3.02756e-05
37 1 5.63099 9.9901 9.79302 -8.77943e-05 -3.35767e-05 2.62546e-05 9.75937e-05
38 1 8.50835 11.0801 1.48374 1.90033e-05 -1.12834e-05 -4.47143e-05 4.98779e-05
39 1 8.63638 0.0598082 5.46515 -2.37743e-06 2.3796e-05 5.75997e-05 6.23669e-05
40 1 9.18908 6.65558 0.522342 -2.21385e-05 8.13685e-06 -3.0839e-05 3.88248e-05
41 1 0.304688 6.99379 3.29082 1.5778e-05 -1.47808e-05 3.94301e-05 4.49684e-05
42 1 9.43228 6.38907 3.99141 1.10656e-05 5.46283e-05 -1.89725e-05 5.88783e-05
43 1 10.5164 8.25932 5.09747 -3.48936e-06 2.79522e-05 9.73591e-06 2.98041e-05
44 1 9.84046 6.7832 6.98572 1.9715e-07 1.10817e-05 -5.48447e-05 5.59534e-05
45 1 11.0554 8.04115 8.74612 9.09133e-06 5.50221e-06 -2.74936e-05 2.94758e-05
46 1 9.99614 5.43707 10.5166 0.000139017 8.5455e-05 0.000226949 0.000279525
47 1 8.9438 9.60651 3.6544 2.45785e-05 -3.08766e-05 -2.03437e-06 3.95172e-05
48 1 10.0853 10.7207 5.60845 1.43757e-05 1.93201e-05 -2.19679e-05 3.25962e-05
49 1 9.31209 9.16805 7.37318 3.33724e-06 3.04561e-05 -2.36209e-05 3.86867e-05
50 1 10.8288 10.4145 9.1468 -4.10063e-06 -3.83183e-05 -1.18844e-06 3.85554e-05
51 1 10.3489 7.99466 11.0919 9.38948e-07 -2.79403e-05 -2.39141e-05 3.67889e-05
52 1 10.9675 10.8633 0.992702 -9.21323e-06 -5.96287e-05 2.02588e-05 6.36466e-05
53 1 10.0641 11.7574 3.4149 -2.01221e-05 -8.94606e-06 9.07771e-06 2.38188e-05
54 1 9.06996 11.6549 7.78891 -5.77905e-05 3.56562e-05 1.10475e-05 6.87979e-05
55 1 0.379508 3.67453 11.5533 2.70683e-05 4.55483e-05 -6.43109e-06 5.33732e-05
56 1 7.38091 11.5902 3.57414 4.39326e-05 -1.37188e-05 9.1691e-06 4.69292e-05
57 1 0.0482251 5.59814 8.68037 1.42149e-05 -1.97211e-05 2.90653e-05 3.78917e-05
58 1 11.1183 5.42162 5.32786 2.93544e-05 2.74536e-05 -5.10384e-05 6.49639e-05
59 1 6.12608 11.3734 7.74137 2.50296e-05 -2.35838e-05 2.11801e-05 4.0389e-05
60 1 7.33532 12.0169 9.67114 -4.48949e-06 4.61188e-05 -5.62599e-06 4.66771e-05
61 1 7.00083 10.5791 11.6995 1.18015e-05 -4.12851e-06 7.89352e-06 1.47861e-05
62 1 9.98359 0.507571 1.41266 1.52845e-05 1.23712e-05 -3.53973e-05 4.04924e-05
63 1 10.9668 0.391986 5.88756 6.18661e-06 5.00587e-05 -7.15848e-05 8.75701e-05
64 1 9.89016 2.00736 11.6569 3.56642e-05 -1.83157e-06 -8.128e-06 3.66245e-05
65 1 10.9263 2.91393 1.70024 5.11941e-05 -9.78873e-06 -2.08318e-05 5.61304e-05
66 1 10.104 1.46167 3.6836 1.94653e-05 4.28354e-06 -2.88991e-05 3.51056e-05
67 1 0.0747774 2.83331 5.30584 -2.22372e-05 1.13562e-05 2.99903e-05 3.9024e-05
68 1 9.68575 1.59899 7.48063 1.86731e-06 2.07692e-05 -3.06089e-05 3.70371e-05
69 1 10.5539 3.09096 9.45659 1.08022e-05 3.70788e-05 -2.2787e-05 4.48416e-05
70 1 8.54564 12.5512 11.7355 1.46267e-05 -1.3103e-05 -3.27014e-05 3.81446e-05
71 1 9.27429 4.19434 0.180951 2.84877e-05 4.76697e-05 1.65307e-05 5.79414e-05
72 1 10.6854 5.3668 1.84475 -1.84886e-05 2.4311e-05 4.36917e-05 5.33087e-05
73 1 9.83027 3.95892 3.73606 2.37141e-05 -4.35592e-06 -8.3066e-06 2.55016e-05
74 1 10.3694 3.93434 7.15467 -2.20473e-06 -4.98183e-06 -5.26937e-05 5.29746e-05
75 1 10.899 12.3127 11.0493 1.06292e-05 6.82892e-06 -2.9342e-06 1.29701e-05
76 1 4.46909 8.71959 8.09826 -1.42448e-05 -2.99408e-05 -1.64368e-05 3.70073e-05
77 1 4.06036 8.6843 4.42797 7.37164e-06 3.41674e-05 3.77398e-05 5.14397e-05
78 1 3.03859 2.71565 7.26271 -4.19246e-05 2.5885e-06 -1.64977e-05 4.51281e-05
79 1 2.5708 0.531884 8.22823 -3.04733e-05 -4.62215e-05 -4.99063e-05 7.45365e-05
80 1 3.8936 2.0541 9.49152 -2.77424e-05 5.29225e-05 3.07751e-05 6.72126e-05
81 1 1.19202 1.46335 10.1362 7.35131e-06 1.01677e-05 2.00876e-05 2.36841e-05
82 1 1.87071 3.52608 1.34815 -1.57971e-05 1.22772e-05 2.63236e-05 3.30637e-05
83 1 3.29464 4.97208 2.95245 -4.52036e-05 -6.09257e-05 -4.70516e-05 8.92702e-05
84 1 2.49498 3.4255 4.9036 -4.5474e-06 -2.89189e-05 2.1569e-05 3.63621e-05
85 1 3.73899 4.89956 6.5181 -2.39675e-05 1.16346e-05 1.47165e-05 3.04365e-05
86 1 1.65581 3.80606 9.34189 3.53497e-05 1.68557e-05 2.16877e-05 4.47669e-05
87 1 3.9577 4.55139 9.40739 3.22568e-06 1.52537e-05 5.15851e-05 5.38897e-05
88 1 2.81798 2.87111 11.4691 2.56353e-05 -8.95568e-06 8.51378e-06 2.8458e-05
89 1 1.7385 5.94681 1.47688 0.000194729 -1.87778e-05 0.000169173 0.000258634
90 1 2.66422 7.75909 2.69306 2.97287e-05 -1.65025e-06 -4.21052e-05 5.15691e-05
91 1 2.06781 6.00729 4.81705 1.59769e-05 1.42215e-05 -2.22061e-05 3.08322e-05
92 1 3.24355 7.45047 6.44371 -2.5517e-05 -1.13233e-05 -3.90689e-05 4.80179e-05
93 1 2.90675 0.153411 3.7445 3.14409e-06 -2.19667e-05 8.66983e-07 2.22075e-05
94 1 2.43811 6.14832 8.39722 -1.36505e-05 -1.25279e-05 1.83276e-05 2.60612e-05
95 1 3.68463 2.56697 2.89306 2.23607e-05 -4.32836e-05 2.38651e-05 5.42495e-05
96 1 11.1158 0.13451 8.68475 -2.06145e-05 -1.76442e-05 -4.63789e-06 2.75279e-05
97 1 1.17249 1.8702 3.29509 2.57705e-05 1.00357e-05 -5.19481e-06 2.81393e-05
98 1 1.85192 1.07923 5.75391 2.07977e-05 -2.54516e-05 3.72851e-05 4.97042e-05
99 1 0.694432 2.14815 7.67828 4.40671e-06 1.02236e-05 -1.7031e-05 2.03469e-05
100 1 0.858731 4.38672 3.39302 4.5136e-05 -2.34614e-05 1.30252e-05 5.25105e-05
101 1 1.35799 4.49449 6.86601 -2.91089e-05 4.49538e-05 -2.64425e-05 5.97276e-05
102 1 0.278103 6.04057 11.9289 -0.00019843 -7.15116e-05 -0.000192256 0.000285395
103 1 0.295224 8.03411 1.05306 -3.3298e-05 5.95373e-05 1.83795e-05 7.06488e-05
104 1 0.856221 7.07186 6.75621 1.38093e-05 8.87987e-06 -2.6801e-05 3.143e-05
105 1 1.34644 7.33445 10.2637 -7.52404e-05 -2.09981e-05 5.34832e-06 7.82984e-05
106 1 1.85893 9.85161 1.30914 4.23321e-05 -1.35108e-05 -5.26684e-05 6.89095e-05
107 1 0.309491 9.46054 6.8152 6.92845e-06 -3.3459e-06 5.21327e-06 9.29391e-06
108 1 0.72485 9.65305 11.2083 -4.59345e-05 -2.61646e-05 2.17745e-05 5.71725e-05
109 1 0.630623 1.31098 0.261438 -6.27454e-05 2.86398e-05 -2.23053e-05 7.24897e-05
110 1 0.0374155 9.61274 3.1137 1.04353e-05 -4.94833e-06 -1.5915e-05 1.96639e-05
111 1 0.934784 11.3859 4.80948 1.77248e-05 5.03294e-06 -2.61079e-05 3.1955e-05
112 1 2.62774 1.17424 1.34885 0.000102529 1.50824e-05 1.83497e-05 0.000105245
113 1 5.14749 10.0947 6.06035 2.02145e-05 -1.37903e-05 -1.50667e-05 2.87368e-05
114 1 3.81108 7.28813 10.0574 1.25806e-06 1.80586e-05 7.95097e-06 1.97715e-05
115 1 4.28571 9.39678 1.7225 3.90268e-05 2.25484e-05 3.7729e-05 5.87793e-05
116 1 4.272 4.08216 0.819658 7.96084e-06 -5.16264e-05 2.01236e-05 5.59788e-05
117 1 5.72365 5.18508 2.54136 3.47813e-05 5.68962e-07 -4.89807e-06 3.51291e-05
118 1 4.96691 3.83811 4.51149 3.30674e-05 -1.05358e-05 1.66634e-05 3.84984e-05
119 1 6.21218 4.88084 6.33149 -9.3082e-06 -5.59472e-06 -5.77637e-06 1.23008e-05
120 1 5.3156 3.22287 7.82906 -2.10616e-05 -4.14018e-05 -2.9433e-05 5.49909e-05
121 1 6.4546 4.87499 9.1492 3.74009e-07 2.94617e-05 -1.2686e-05 3.20791e-05
122 1 5.40361 3.26071 10.9685 -1.59619e-05 1.878e-07 -4.60469e-06 1.66139e-05
123 1 4.14955 6.51853 1.04235 -1.60864e-05 -2.48499e-05 2.24249e-05 3.71372e-05
124 1 5.43725 7.55976 2.78693 -1.23439e-05 -3.61048e-05 3.11036e-05 4.92276e-05
125 1 4.48071 6.2347 4.59493 4.19278e-07 -3.06826e-06 3.50186e-05 3.51552e-05
126 1 5.71178 7.71273 6.00497 9.94983e-06 6.38402e-06 -3.8313e-05 4.00954e-05
127 1 4.94409 6.35176 7.98642 2.58268e-05 2.1282e-05 7.37653e-06 3.42689e-05
128 1 6.2972 7.55473 9.68733 -5.40273e-05 -2.15778e-05 -8.88253e-06 5.88511e-05
129 1 5.22738 5.73157 11.2236 -4.58816e-05 -1.49455e-05 -6.16508e-06 4.86466e-05
130 1 6.80516 9.23456 1.47884 -1.79586e-05 1.18126e-05 -4.52273e-05 5.00755e-05
131 1 3.32889 0.472973 11.2784 -3.25912e-05 -1.83121e-05 -1.97903e-05 4.22986e-05
132 1 2.63291 5.36966 11.3832 -1.1762e-05 -6.19523e-06 -7.02556e-06 1.50361e-05
133 1 6.45696 1.67849 9.51867 9.13458e-07 3.45013e-05 1.11098e-05 3.62574e-05
134 1 6.44882 2.33036 5.84035 3.06346e-05 9.77186e-06 -3.91547e-05 5.06662e-05
135 1 1.51501 8.45411 4.77172 2.98803e-05 5.64558e-06 4.0561e-06 3.06783e-05
136 1 2.69658 9.86609 6.19938 3.60372e-05 4.36631e-06 1.40398e-05 3.89212e-05
137 1 2.00923 8.82736 8.39893 -1.36126e-05 -4.83501e-06 3.73479e-05 4.00443e-05
138 1 3.1152 9.61048 10.3873 -5.09686e-05 6.2366e-05 7.84406e-05 0.000112429
139 1 2.61517 7.98683 12.2264 -1.29729e-05 -9.81227e-05 8.95058e-06 9.93805e-05
140 1 3.50648 11.7339 1.67594 -4.25142e-05 6.53756e-05 3.68842e-05 8.62663e-05
141 1 2.55657 10.3192 3.52234 -3.08916e-05 4.72569e-05 -1.26246e-05 5.78523e-05
142 1 3.59561 12.0464 5.96422 3.22849e-05 -2.75389e-05 2.92463e-05 5.15369e-05
143 1 1.18777 11.5949 7.22437 2.10901e-06 4.75866e-05 -8.10842e-06 4.83185e-05
144 1 1.67258 11.5295 9.75655 -3.22046e-05 3.64216e-05 -1.56512e-05 5.10747e-05
145 1 1.66252 11.7775 12.185 -6.97786e-06 -2.01818e-05 4.92599e-05 5.36892e-05
146 1 5.24907 0.644924 3.05208 7.35672e-05 4.80372e-05 4.34668e-05 9.80258e-05
147 1 4.85328 1.66702 0.663618 -1.10631e-05 -3.48969e-05 1.73401e-05 4.05076e-05
148 1 6.117 2.82132 2.30353 -7.92748e-06 -1.52139e-06 1.44412e-05 1.65441e-05
149 1 4.22294 1.63953 5.20812 3.31098e-05 1.84106e-05 8.69817e-05 9.48737e-05
150 1 4.90856 0.85494 7.45955 4.99275e-06 -1.79455e-05 2.12052e-05 2.82247e-05
151 1 9.53309 10.2887 11.4031 1.66391e-05 -5.58847e-05 -1.96334e-05 6.15258e-05
