ITEM: TIMESTEP
0
ITEM: NUMBER OF ATOMS
130
ITEM: BOX BOUNDS pp pp pp
0.0000000000000000e+00 1.1464695000000001e+01
0.0000000000000000e+00 1.1317634999999999e+01
0.0000000000000000e+00 1.1648808000000001e+01
ITEM: ATOMS id type x y z fx fy fz v_fmag
1 1 1.80832 1.85647 1.70973 1.01271e-05 -1.59056e-05 2.54485e-06 1.90268e-05
2 1 9.03931 6.96938 9.15941 -3.24214e-05 -3.95075e-06 -1.24217e-05 3.49436e-05
3 1 7.30795 6.23031 7.40991 -1.80963e-05 1.07513e-05 -3.77139e-06 2.13844e-05
4 1 10.76 7.66231 5.10456 -2.08342e-05 4.68313e-06 -2.88716e-05 3.59105e-05
5 1 9.04137 6.96363 3.35945 4.65035e-06 -1.71855e-05 -1.0377e-05 2.0607e-05
6 1 8.38277 7.80151 11.3952 -1.92554e-05 1.97713e-05 -2.5239e-07 2.75996e-05
7 1 7.69237 2.99901 10.6331 4.07503e-06 -1.98532e-05 -4.28685e-06 2.07155e-05
8 1 8.72083 4.5542 8.79757 1.21713e-05 1.78088e-05 1.25447e-05 2.49533e-05
9 1 6.98583 3.76866 7.04164 -2.93543e-07 1.78929e-06 -2.84994e-05 2.8557e-05
10 1 8.01986 5.40276 5.20096 -3.50345e-05 1.99069e-06 -3.3612e-05 4.85916e-05
11 1 6.30231 4.78889 3.43321 6.92121e-06 3.07417e-05 -1.038e-05 3.31768e-05
12 1 9.75946 6.10608 1.13982 1.25739e-05 -1.69213e-05 3.98838e-05 4.51126e-05
13 1 7.37412 0.58168 10.2816 -4.57247e-06 -4.22392e-05 2.58182e-06 4.25644e-05
14 1 8.40462 2.13719 8.43261 8.82625e-06 -2.2485e-05 -1.17275e-05 2.68517e-05
15 1 8.02027 5.40709 11.0138 -2.09738e-05 -9.98239e-06 -3.72519e-05 4.39005e-05
16 1 6.66532 1.24437 6.67414 5.40258e-05 2.38432e-05 -1.83611e-06 5.90818e-05
17 1 8.40592 2.16533 2.60415 4.50455e-05 -2.93303e-05 -3.24271e-05 6.27765e-05
18 1 9.4299 3.70657 0.761426 3.51527e-06 -3.62039e-05 -1.83721e-05 4.07507e-05
19 1 8.12813 11.0395 8.1319 -3.40456e-06 -1.82938e-05 6.18734e-05 6.46109e-05
20 1 9.79387 0.444168 4.02548 1.36449e-05 -4.71901e-06 2.49267e-05 2.88062e-05
21 1 9.10451 1.30229 0.398297 3.68652e-06 -4.35441e-06 9.30372e-06 1.09138e-05
22 1 4.94851 0.863225 4.87007 6.42411e-05 -3.20584e-05 -6.74687e-06 7.21123e-05
23 1 5.61923 11.2984 2.66813 4.60353e-05 1.67214e-05 3.17156e-05 5.83501e-05
24 1 4.6409 9.66685 10.323 -2.16254e-05 8.33752e-05 -1.43059e-05 8.7314e-05
25 1 7.5574 8.67241 7.79857 -6.8409e-07 -9.8433e-06 -5.18647e-05 5.27949e-05
26 1 5.86746 8.32611 6.07839 -8.54807e-07 -9.7612e-05 1.769e-05 9.92057e-05
27 1 6.92699 9.61325 4.17533 2.60952e-05 3.77676e-05 2.23242e-05 5.10463e-05
28 1 5.24127 8.88979 2.35171 -1.97198e-05 -4.14844e-05 -3.23802e-05 5.61988e-05
29 1 6.3266 10.3904 0.497829 -1.19368e-05 -5.12267e-05 -3.27731e-05 6.19737e-05
30 1 7.70547 3.00807 4.83001 1.60647e-05 8.25922e-05 5.59983e-05 0.000101071
31 1 8.77168 10.2103 0.0657931 -1.33187e-05 -4.04154e-05 -2.95488e-05 5.18066e-05
32 1 7.66755 8.69078 1.95556 -1.79041e-05 -2.02298e-05 2.52308e-07 2.7016e-05
33 1 9.36975 9.36928 3.71699 2.58082e-06 6.09188e-06 3.84856e-05 3.90501e-05
34 1 9.47468 9.35149 9.51821 -2.7018e-05 4.6707e-05 4.03488e-05 6.73762e-05
35 1 2.09319 9.92867 4.9801 -8.4821e-06 8.5523e-06 8.13371e-05 8.22242e-05
36 1 0.355018 9.21842 3.24267 -2.23262e-05 -4.6381e-05 2.19881e-05 5.59744e-05
37 1 10.1024 8.51287 1.4989 -3.40847e-05 1.30913e-06 1.2044e-05 3.61737e-05
38 1 1.46541 10.7673 1.35061 2.72401e-05 -1.44862e-05 4.25435e-06 3.11444e-05
39 1 0.00858051 6.82741 8.70793 -1.38799e-05 6.75234e-05 1.09888e-05 6.98056e-05
40 1 1.03183 8.36875 6.84987 -3.14848e-05 2.39812e-05 5.39457e-05 6.69069e-05
41 1 9.74922 6.11768 6.95218 3.83797e-05 1.5931e-05 2.4389e-05 4.81832e-05
42 1 0.0199512 6.80861 2.89558 -1.25293e-05 -2.64929e-05 1.94719e-05 3.51854e-05
43 1 10.808 7.66285 10.9299 -2.43908e-05 1.44138e-05 2.05106e-05 3.49764e-05
44 1 10.4532 5.26654 10.5635 1.36642e-06 7.12509e-06 -3.11184e-05 3.19529e-05
45 1 11.1617 4.41475 8.35289 5.52635e-06 2.77208e-05 -1.18764e-05 3.06599e-05
46 1 9.43309 3.7078 6.59271 3.00188e-05 -1.29691e-05 -2.74468e-05 4.26925e-05
47 1 10.4597 5.25272 4.74477 7.07653e-06 9.99256e-06 -7.99654e-06 1.46244e-05
48 1 8.73094 4.55854 2.98257 1.77565e-05 5.31873e-06 -1.57268e-06 1.86025e-05
49 1 10.1327 2.85858 10.1994 1.29531e-06 -1.11618e-05 -4.21685e-06 1.20019e-05
50 1 10.8446 2.00323 7.99542 -1.14963e-05 8.72399e-06 -1.62937e-05 2.1766e-05
51 1 9.11913 1.29765 6.23284 2.07482e-05 2.79846e-05 7.35699e-06 3.56055e-05
52 1 10.1416 2.84448 4.38291 -2.09574e-05 -1.897e-05 2.55737e-07 2.8269e-05
53 1 10.838 1.99973 2.16586 -1.47806e-05 -8.94026e-06 -1.70191e-05 2.42496e-05
54 1 0.400547 3.56154 0.31575 1.38535e-05 2.72621e-05 1.95926e-05 3.63182e-05
55 1 9.82926 0.446481 9.85584 -5.55563e-07 2.24891e-06 -7.27428e-06 7.63423e-06
56 1 0.759852 0.299692 3.56846 4.40795e-05 -1.45031e-05 2.4308e-05 5.23853e-05
57 1 0.0831334 1.15394 11.6028 4.15264e-05 -4.50469e-06 -6.37254e-06 4.22533e-05
58 1 8.59323 10.2344 5.91644 -1.45762e-05 -3.4052e-05 5.61112e-06 3.74631e-05
59 1 8.05748 11.0819 2.25166 -3.98935e-05 2.19367e-05 5.83481e-05 7.40082e-05
60 1 7.055 9.48157 10.0032 -2.15728e-05 1.21858e-05 3.46779e-05 4.26197e-05
61 1 10.0381 8.5353 7.30001 -8.40591e-06 2.56227e-05 -3.23049e-05 4.20807e-05
62 1 8.30064 7.81236 5.58301 2.36067e-05 3.33766e-05 3.18765e-05 5.18399e-05
63 1 5.59347 5.57834 11.4588 -2.9947e-05 6.63622e-06 1.59632e-06 3.0715e-05
64 1 6.61928 7.09934 9.62829 -1.78349e-05 -2.63921e-05 -3.96572e-05 5.08658e-05
65 1 4.90244 6.71819 7.82422 -6.13086e-06 -3.75148e-05 1.62459e-06 3.80472e-05
66 1 6.61058 7.21058 3.82804 -1.92842e-05 -4.41351e-05 -4.74555e-05 6.76152e-05
67 1 2.13463 4.25471 7.90567 2.45815e-06 -2.35751e-05 -2.71116e-05 3.6012e-05
68 1 3.16313 5.82534 6.06575 -3.09464e-06 3.17964e-05 -2.75649e-05 4.21949e-05
69 1 1.43499 5.10396 4.29901 2.20133e-05 9.52125e-06 1.78277e-05 2.98842e-05
70 1 4.56914 4.0784 1.6441 -4.86898e-07 -4.99141e-06 -1.90084e-05 1.96589e-05
71 1 0.807787 0.300208 9.39379 5.671e-06 1.10764e-05 5.61618e-06 1.36524e-05
72 1 3.54788 2.55973 9.29741 9.01689e-06 -2.49752e-05 -1.95503e-05 3.29739e-05
73 1 1.81854 1.84482 7.54618 2.6616e-05 2.36557e-05 -8.33996e-07 3.56188e-05
74 1 2.84689 3.40833 5.7008 3.70959e-05 3.02727e-05 -1.1605e-05 4.92668e-05
75 1 1.11456 2.696 3.93486 -1.36362e-05 -3.0027e-05 -3.1565e-08 3.29783e-05
76 1 2.13783 4.25598 2.08814 3.97744e-05 8.35154e-06 -2.65609e-05 4.85514e-05
77 1 3.26717 0.150124 8.91533 1.99242e-08 6.38975e-05 2.41768e-05 6.83184e-05
78 1 3.54749 2.55545 3.4846 -9.12988e-07 -1.63963e-05 -2.41544e-05 2.9208e-05
79 1 4.24166 1.67558 1.25485 -5.03325e-06 1.1206e-05 1.52481e-05 1.95809e-05
80 1 11.2129 10.0618 11.2556 1.01164e-05 -2.36059e-05 1.16512e-05 2.82016e-05
81 1 1.52978 10.7448 7.19834 1.37621e-05 -1.92717e-05 -4.46821e-05 5.05696e-05
82 1 2.79618 9.06986 2.78373 6.35429e-06 -3.46267e-05 -3.94327e-05 5.28614e-05
83 1 2.52642 0.998886 11.1389 5.76388e-05 -1.69277e-05 2.10268e-05 6.36467e-05
84 1 0.461611 9.21305 9.05025 -5.06696e-05 7.644e-06 -2.12378e-06 5.1287e-05
85 1 1.73854 7.51605 4.6425 1.99816e-05 -5.76966e-06 -3.00466e-05 3.65425e-05
86 1 1.0759 8.36637 1.03432 -3.36432e-05 2.78013e-05 4.37462e-05 6.1794e-05
87 1 1.77396 7.51835 10.4729 -3.38394e-05 -3.80806e-05 -3.06769e-05 5.94669e-05
88 1 1.42617 5.11806 10.1155 1.61087e-05 -2.33457e-05 3.31898e-06 2.85574e-05
89 1 0.723118 5.95928 6.50294 -3.09675e-05 -2.9568e-05 1.13668e-05 4.42996e-05
90 1 0.729749 5.96282 0.683705 -4.32513e-05 -2.49758e-05 -4.43215e-05 6.67747e-05
91 1 1.10806 2.70981 9.75361 1.86043e-05 7.48606e-06 -4.48211e-05 4.91028e-05
92 1 0.406058 3.54776 6.14548 2.93008e-05 8.22082e-06 5.43479e-05 6.22881e-05
93 1 11.1672 4.40101 2.53382 -3.05408e-05 -3.15593e-06 -3.8969e-05 4.96113e-05
94 1 10.536 10.9114 7.64846 2.23427e-05 1.86593e-05 2.34378e-05 3.73723e-05
95 1 0.094513 1.1351 5.79042 4.31374e-05 -2.95998e-05 3.63361e-06 5.24422e-05
96 1 3.86226 4.95441 9.66837 -1.30686e-05 3.69246e-05 2.14209e-05 4.46438e-05
97 1 10.492 10.9138 1.81519 2.51471e-05 -2.5775e-05 2.67474e-05 4.4857e-05
98 1 2.83679 3.40398 11.5158 4.90858e-05 1.41704e-05 -1.36947e-05 5.28939e-05
99 1 2.46328 6.66025 2.45125 -1.83753e-05 2.58178e-05 -1.58869e-05 3.54486e-05
100 1 4.89823 6.48255 2.02037 -4.04274e-05 6.61483e-05 6.31795e-06 7.7781e-05
101 1 5.94862 7.98171 0.181413 -2.70998e-05 5.95995e-05 1.05012e-06 6.54798e-05
102 1 5.26543 3.17362 11.0652 -1.0405e-05 -2.11133e-06 3.6649e-05 3.81558e-05
103 1 6.28186 4.68722 9.23383 3.25443e-05 -3.07124e-05 4.07486e-05 6.05214e-05
104 1 4.58189 4.19389 7.45673 3.20308e-05 -2.61621e-05 -3.4242e-05 5.3693e-05
105 1 5.60323 5.75184 5.64736 1.24258e-05 -2.92314e-05 -3.27359e-06 3.19311e-05
106 1 3.87537 4.96355 3.86531 -1.47549e-05 7.53828e-06 2.26187e-05 2.80382e-05
107 1 7.32614 6.28693 1.59471 -4.58649e-05 1.52359e-05 -1.49726e-05 5.05955e-05
108 1 4.95721 0.751915 10.6703 3.63279e-05 2.33499e-05 -2.29262e-05 4.88932e-05
109 1 5.96451 2.21071 8.85101 2.05447e-05 2.57157e-07 -2.53868e-05 3.26595e-05
110 1 4.25981 1.73223 7.08845 9.88237e-06 9.08892e-06 7.85552e-06 1.55557e-05
111 1 5.28586 3.27534 5.26453 -2.69829e-06 2.41968e-05 2.18697e-05 3.27268e-05
112 1 5.9743 2.38417 3.03957 2.43055e-05 -3.52646e-05 -4.94489e-05 6.54182e-05
113 1 6.9986 3.88412 1.20547 -1.32564e-05 -1.98075e-05 -1.58437e-05 2.86198e-05
114 1 5.70037 10.9541 8.41996 9.12483e-06 6.10048e-05 7.13942e-05 9.43503e-05
115 1 7.36924 0.653417 4.42465 3.64021e-05 -4.93783e-05 -4.61186e-05 7.67479e-05
116 1 6.66956 1.47996 0.829176 2.74741e-05 2.22034e-05 1.91667e-05 4.01893e-05
117 1 2.52849 0.993151 5.33894 8.73045e-08 -1.94989e-05 -1.64166e-05 2.54896e-05
118 1 3.18507 0.161027 3.10319 -9.27944e-07 3.6418e-05 2.14668e-05 4.22842e-05
119 1 2.19814 9.91087 10.7813 -2.79831e-05 3.0335e-06 8.93191e-06 2.95302e-05
120 1 4.01045 10.6078 6.69977 -1.82203e-05 -1.15955e-05 -4.67862e-06 2.20981e-05
121 1 3.43969 8.24067 6.3664 8.5692e-07 2.7062e-05 1.15779e-05 2.94472e-05
122 1 4.51289 9.79861 4.49511 -1.54286e-06 1.09269e-05 2.9963e-05 3.19305e-05
123 1 3.51038 8.19821 0.59787 -3.3588e-05 6.83543e-05 7.15959e-05 0.00010453
124 1 3.90031 10.5894 0.893975 -1.19456e-05 -6.74586e-06 -2.23926e-05 2.62609e-05
125 1 3.16185 5.79718 0.245419 -3.73223e-05 -1.60898e-05 -3.6545e-05 5.46569e-05
126 1 2.9747 9.04569 8.58189 -9.14271e-05 -1.84123e-06 1.74639e-05 9.30983e-05
127 1 2.44865 6.66486 8.26551 -7.38719e-06 -1.2276e-06 1.4498e-05 1.63178e-05
128 1 4.19368 7.38087 4.21672 2.3023e-05 -3.68234e-05 -3.03356e-05 5.29742e-05
129 1 4.19857 7.30905 10.0737 -5.11458e-05 -2.01706e-06 -5.64155e-05 7.61753e-05
130 1 11.1063 10.0671 5.44808 8.04797e-06 -5.42773e-06 1.09984e-05 1.46695e-05
