ITEM: TIMESTEP
0
ITEM: NUMBER OF ATOMS
117
ITEM: BOX BOUNDS pp pp pp
0.0000000000000000e+00 1.1436527999999999e+01
0.0000000000000000e+00 1.1745825000000000e+01
0.0000000000000000e+00 1.1261291999999999e+01
ITEM: ATOMS id type x y z fx fy fz v_fmag
1 1 11.3008 2.38139 4.25469 -4.39821e-06 2.43883e-05 -3.71165e-05 4.46292e-05
2 1 8.05887 7.75373 9.23857 1.64693e-05 -1.73552e-05 1.08259e-05 2.6261e-05
3 1 10.6015 9.69212 4.27621 2.7309e-05 4.73263e-05 9.33807e-05 0.000108192
4 1 5.89715 7.07409 10.1869 -1.66612e-05 -1.29023e-05 -1.28825e-05 2.46987e-05
5 1 7.94986 7.60041 6.57788 1.87751e-05 3.95093e-06 4.22985e-05 4.64465e-05
6 1 7.37086 5.9587 3.45564 -1.66493e-05 -3.95778e-06 -2.09395e-05 2.7043e-05
7 1 0.0277671 7.63201 1.20582 -2.13567e-05 1.85931e-05 -6.18591e-06 2.89841e-05
8 1 4.28992 6.03597 8.50665 -2.50334e-05 -1.29991e-05 -1.60384e-05 3.24481e-05
9 1 6.76794 5.89924 8.03138 -1.63378e-05 1.58222e-05 -1.37625e-05 2.65833e-05
10 1 5.61014 4.70472 4.77406 2.45172e-05 4.27166e-06 -4.35123e-05 5.01265e-05
11 1 9.6573 6.57372 2.62712 1.87176e-05 4.90213e-06 -5.88575e-06 2.02243e-05
12 1 5.41426 4.48292 10.059 -1.47404e-05 1.8193e-05 -2.90503e-05 3.7312e-05
13 1 4.64057 2.15019 9.75087 5.5722e-06 -2.3545e-05 6.16898e-06 2.49694e-05
14 1 6.10072 3.6149 7.52121 -3.48661e-05 1.82009e-05 -7.12718e-05 8.14038e-05
15 1 7.00188 3.50983 2.88993 -1.29597e-05 -4.12762e-06 -8.38929e-06 1.59803e-05
16 1 8.10263 1.99555 1.08931 2.03081e-05 2.32695e-05 -2.42452e-05 3.92647e-05
17 1 5.92445 11.736 9.32945 -1.43961e-05 2.85862e-05 -5.83841e-06 3.25347e-05
18 1 7.49976 1.47104 7.91984 -4.00286e-05 2.64567e-05 -1.59103e-05 5.05508e-05
19 1 8.9291 2.45694 6.04303 -3.31595e-06 3.30233e-05 1.55094e-05 3.66343e-05
20 1 6.50071 0.950495 3.022 -6.57662e-06 4.25396e-05 -7.69206e-06 4.37268e-05
21 1 4.65399 0.499053 4.93097 -1.65123e-05 -1.65464e-05 -3.61154e-07 2.33788e-05
22 1 6.32276 0.107104 0.60317 -2.33041e-05 -4.42611e-07 -4.14569e-06 2.36741e-05
23 1 5.47548 10.4219 3.37217 -2.88221e-05 -3.6013e-06 -2.90767e-06 2.91914e-05
24 1 7.50893 10.1468 8.15808 2.15523e-05 1.34673e-05 1.13576e-05 2.78364e-05
25 1 6.56859 9.43815 5.57194 -9.50939e-05 -1.67572e-05 5.73737e-06 9.67293e-05
26 1 7.15698 9.37336 1.82807 1.06749e-06 8.54468e-06 9.83312e-06 1.30706e-05
27 1 9.24683 9.27535 10.8788 -1.84064e-05 -1.93246e-05 2.83948e-05 3.89679e-05
28 1 9.66924 9.09876 2.09193 2.01197e-06 1.46417e-05 4.31696e-05 4.56294e-05
29 1 8.91711 9.86849 6.09677 4.33071e-05 6.00075e-05 2.09868e-05 7.6921e-05
30 1 11.3174 10.5642 6.50722 -8.8021e-05 2.34795e-05 -8.40825e-05 0.000123971
31 1 0.204128 8.58315 10.2303 1.10483e-05 -3.39948e-05 -1.81129e-05 4.00723e-05
32 1 11.1196 5.12179 1.21428 -7.5463e-06 -3.09292e-06 4.37879e-06 9.2567e-06
33 1 10.6168 4.28619 6.45024 1.02051e-05 -1.0538e-05 -1.4218e-05 2.0429e-05
34 1 9.54638 3.47006 10.7783 -1.30978e-05 -2.70448e-05 -6.47722e-05 7.14031e-05
35 1 9.8202 0.292438 5.19295 2.1965e-05 -7.76743e-05 6.09143e-05 0.000101125
36 1 10.4093 1.07081 0.242751 8.1658e-06 -5.40957e-05 1.4435e-05 5.65809e-05
37 1 10.4697 11.7359 2.77219 1.12182e-05 2.17972e-07 -4.45052e-05 4.58978e-05
38 1 10.7539 11.0064 9.7146 -1.23446e-05 -3.57431e-05 -1.33631e-06 3.78384e-05
39 1 9.94147 9.09482 8.34055 -3.99846e-05 1.92727e-05 4.00681e-05 5.97968e-05
40 1 10.0432 6.52178 10.5025 -2.80477e-05 -2.65247e-05 -1.58623e-05 4.17355e-05
41 1 10.7648 8.08595 6.26099 -1.02799e-05 1.48856e-05 3.64124e-05 4.06586e-05
42 1 9.7065 6.24612 5.13304 6.55204e-06 -1.78108e-05 -2.01782e-05 2.77004e-05
43 1 6.73329 9.55915 10.5914 9.53068e-06 3.3302e-05 -2.0659e-06 3.47006e-05
44 1 7.84493 5.26804 10.2224 -1.03044e-06 -3.95137e-05 -3.09694e-06 3.96483e-05
45 1 7.82846 4.8212 5.97844 2.29025e-05 -2.10495e-05 -2.29205e-05 3.86388e-05
46 1 8.60138 4.70349 1.40731 -3.89019e-06 2.22061e-05 -1.96171e-06 2.26295e-05
47 1 7.16667 2.60911 10.0896 1.21552e-05 2.64699e-05 2.0515e-05 3.56268e-05
48 1 8.65897 3.71735 8.27442 -5.55014e-06 1.22795e-05 7.15201e-06 1.52559e-05
49 1 9.26577 4.12472 3.93005 -2.55835e-05 4.10327e-07 -1.44165e-05 2.93687e-05
50 1 10.404 2.85334 1.97153 -3.52089e-05 -3.75667e-06 -2.75345e-05 4.48545e-05
51 1 8.36696 0.201184 10.0441 -8.05467e-07 1.8339e-05 2.88272e-05 3.41756e-05
52 1 9.4743 0.0335708 7.6718 -1.40824e-05 3.11145e-06 9.00546e-06 1.70027e-05
53 1 8.74772 1.7099 3.54514 6.94424e-06 2.64573e-05 -7.56419e-05 8.04358e-05
54 1 7.20134 0.100536 5.84594 -1.34395e-05 3.67642e-05 5.40479e-06 3.9515e-05
55 1 8.66491 11.247 1.17601 6.57515e-05 1.27984e-05 2.20312e-05 7.05155e-05
56 1 8.14977 10.7745 3.70069 -2.98473e-05 -1.94054e-05 2.62917e-05 4.4257e-05
57 1 9.39429 6.07592 7.85788 -2.2279e-05 8.74646e-06 1.2119e-05 2.68277e-05
58 1 1.07761 9.42504 2.72624 2.80305e-05 3.26591e-05 -1.48444e-05 4.55267e-05
59 1 5.73372 8.27568 7.94256 5.05528e-06 -3.49421e-06 -1.05396e-05 1.22003e-05
60 1 2.58484 7.68879 9.40451 3.4419e-05 3.37468e-06 -3.0603e-05 4.61801e-05
61 1 11.0698 4.4962 9.04964 3.03631e-06 -2.90609e-05 -3.2663e-05 4.38249e-05
62 1 0.999481 6.21276 6.04145 6.15328e-06 -1.66678e-05 1.52141e-05 2.33912e-05
63 1 0.252706 4.88272 3.92033 1.52834e-05 -1.72322e-05 8.21896e-06 2.44557e-05
64 1 3.77556 4.35606 1.37022 -6.10807e-06 1.67552e-05 8.43439e-06 1.97278e-05
65 1 0.606507 3.17442 11.0617 -1.99425e-05 -1.1501e-05 6.82415e-06 2.40114e-05
66 1 10.4241 1.87012 9.07961 6.78878e-06 1.36467e-05 -1.05254e-05 1.85231e-05
67 1 1.57452 3.6701 6.00507 3.94634e-05 -4.86304e-05 -1.58846e-05 6.46111e-05
68 1 2.47003 1.84954 3.88687 -5.72244e-06 -3.4399e-05 -9.48337e-06 3.61382e-05
69 1 2.97987 2.15165 0.664091 -2.87254e-05 4.79706e-06 -2.46443e-05 3.8151e-05
70 1 1.33548 0.824374 10.5815 1.43301e-05 -1.68322e-05 4.23103e-05 4.77372e-05
71 1 3.36411 0.234698 8.58702 -1.71727e-05 -1.80024e-05 4.10275e-05 4.79817e-05
72 1 4.10521 2.93312 5.57003 -2.1525e-05 -4.44405e-05 8.15104e-05 9.53007e-05
73 1 0.999429 1.14193 1.92795 7.12656e-06 -1.2271e-05 3.1008e-06 1.45251e-05
74 1 0.862175 0.0384501 4.61136 1.73854e-05 -6.35703e-06 7.11745e-05 7.35423e-05
75 1 11.388 10.4468 0.746103 4.05167e-05 -5.36572e-06 -5.05194e-06 4.11815e-05
76 1 2.67378 10.7189 6.46607 1.83004e-05 -2.70292e-05 -1.8632e-06 3.26949e-05
77 1 1.51399 8.9799 5.21962 1.77017e-05 8.47799e-06 2.26636e-05 2.99811e-05
78 1 2.0148 10.2787 10.0467 -1.90634e-05 9.468e-06 8.0441e-06 2.27544e-05
79 1 1.23326 9.18566 7.9228 2.56805e-06 -0.00012405 7.50062e-05 0.000144986
80 1 3.53446 8.53958 2.7374 1.04042e-06 -2.03277e-05 -3.34766e-05 3.91788e-05
81 1 0.264279 7.34777 3.80631 -9.12732e-06 -2.71258e-05 1.63453e-05 3.29589e-05
82 1 2.36081 8.44292 0.537765 -2.59056e-05 -3.10777e-05 1.80054e-05 4.42845e-05
83 1 1.19087 6.01214 10.6928 7.72279e-06 -2.33856e-05 -3.05219e-06 2.48162e-05
84 1 1.46581 3.58518 2.14112 -1.19161e-05 3.43388e-06 1.3735e-05 1.8505e-05
85 1 11.3026 1.75934 6.67679 4.46254e-05 -1.12314e-05 -4.30208e-06 4.62177e-05
86 1 5.46175 7.62653 1.24626 -5.02432e-07 4.49438e-05 2.95189e-05 5.37732e-05
87 1 2.03419 6.24411 2.07743 -2.33174e-05 4.56222e-07 1.71559e-05 2.89523e-05
88 1 2.8328 6.9658 4.49203 2.58508e-05 1.23452e-05 -2.17197e-05 3.59502e-05
89 1 0.190458 6.95358 8.39144 5.76053e-05 2.17412e-05 -1.9418e-05 6.45609e-05
90 1 5.49705 6.92538 5.8811 3.40679e-05 6.78353e-06 2.39654e-05 4.22017e-05
91 1 4.597 6.03769 2.95599 -4.364e-05 3.93589e-06 -5.16559e-06 4.41205e-05
92 1 7.98695 7.22633 0.722272 2.09901e-06 4.84515e-06 1.98609e-05 2.05509e-05
93 1 3.72599 6.34458 11.2079 -3.30383e-05 5.57327e-06 -2.56746e-05 4.22111e-05
94 1 1.91249 5.23428 8.20056 1.03317e-05 2.90585e-05 -3.38302e-05 4.57779e-05
95 1 3.57166 5.32096 6.22858 3.33233e-05 1.16547e-05 3.24994e-05 4.79842e-05
96 1 2.85816 4.49273 3.94974 4.82602e-06 5.6047e-05 -3.41902e-05 6.58296e-05
97 1 6.18214 5.21599 1.07076 -1.75707e-05 -7.65089e-06 2.34716e-05 3.03015e-05
98 1 2.87278 4.09505 10.2597 1.31437e-05 4.05517e-06 -1.42292e-05 1.97907e-05
99 1 1.4095 2.62033 8.61619 4.23289e-05 -2.57206e-05 -7.55896e-06 5.01041e-05
100 1 3.63638 3.43508 7.92231 -2.79817e-05 -9.90758e-06 -6.90159e-05 7.51288e-05
101 1 4.65893 2.83808 3.17258 3.98127e-05 -2.44569e-05 -7.11198e-05 8.50954e-05
102 1 8.43148 8.24387 4.1327 -1.10314e-05 -6.05194e-06 4.11403e-05 4.30214e-05
103 1 5.57713 2.56795 0.839564 -5.36357e-05 1.2058e-05 -1.93237e-07 5.49747e-05
104 1 5.11112 1.35498 7.23735 -1.85622e-05 2.33709e-05 -1.90006e-05 3.53805e-05
105 1 6.58043 2.42542 5.19422 3.52036e-05 9.05487e-06 -2.00612e-05 4.15178e-05
106 1 4.19529 0.576373 2.18933 -9.73561e-06 1.98354e-05 -1.83265e-05 2.87069e-05
107 1 2.42719 1.38194 6.46354 2.09203e-05 1.44233e-05 -7.00633e-06 2.63587e-05
108 1 2.35511 10.9175 1.25678 1.34707e-05 1.93392e-07 4.11047e-05 4.32562e-05
109 1 2.93581 10.8155 3.77858 -1.35196e-06 2.82045e-05 3.91773e-05 4.82927e-05
110 1 5.08065 10.6024 7.1844 2.44127e-05 -2.63737e-06 -3.69627e-05 4.43754e-05
111 1 4.15998 9.10169 5.18349 5.54273e-05 5.00281e-06 1.42088e-05 5.74378e-05
112 1 4.6799 9.91216 0.958548 2.85486e-05 -2.01233e-05 -2.96305e-05 4.58033e-05
113 1 4.37804 9.56497 9.62013 3.20784e-05 2.2602e-05 -3.25883e-06 3.93763e-05
114 1 3.10469 7.73853 6.97347 1.21368e-05 2.328e-06 -6.54048e-06 1.39821e-05
115 1 5.94211 7.99267 3.6527 3.87721e-06 -4.54465e-06 3.45027e-05 3.5016e-05
116 1 3.96263 0.101927 10.9284 -1.55843e-05 1.69914e-05 -1.24311e-05 2.61937e-05
117 1 0.97162 0.134324 8.18784 -3.4008e-06 1.83363e-05 6.56695e-05 6.82662e-05
