ITEM: TIMESTEP
0
ITEM: NUMBER OF ATOMS
132
ITEM: BOX BOUNDS pp pp pp
0.0000000000000000e+00 1.1400361000000000e+01
0.0000000000000000e+00 1.2098903999999999e+01
0.0000000000000000e+00 1.2816801000000000e+01
ITEM: ATOMS id type x y z fx fy fz v_fmag
1 1 11.1913 1.70957 1.84423 -7.19183e-06 1.65226e-05 7.50085e-06 1.95187e-05
2 1 5.46904 9.50241 7.03956 -1.45525e-06 -1.35451e-05 1.67465e-05 2.15877e-05
3 1 8.12485 8.08158 0.30238 -1.00878e-05 -8.55719e-05 -6.65546e-05 0.000108875
4 1 5.42082 7.96315 0.200847 3.89186e-06 -3.0711e-06 -4.11133e-05 4.14111e-05
5 1 5.47707 8.50324 9.64308 1.07106e-05 1.68364e-05 1.96564e-05 2.80099e-05
6 1 3.98579 7.49664 7.82239 -2.45091e-07 1.05e-05 9.75223e-06 1.43324e-05
7 1 6.94181 8.43753 5.10577 2.16613e-05 -9.13537e-06 -4.77427e-06 2.39887e-05
8 1 5.35338 7.28717 3.32442 -4.16856e-05 2.88118e-05 2.56675e-05 5.68035e-05
9 1 5.49328 4.95621 11.9135 -1.18043e-05 1.1036e-05 6.63218e-07 1.61733e-05
10 1 5.43233 5.92368 9.37488 -2.28624e-05 -6.10116e-06 -1.4223e-05 2.76081e-05
11 1 3.98419 4.88673 7.50963 -6.70643e-06 9.53805e-06 2.72885e-06 1.19749e-05
12 1 5.45565 6.4569 5.93869 2.80139e-05 -1.3164e-06 1.56637e-05 3.21226e-05
13 1 3.86866 5.39006 4.20884 -3.40963e-05 2.81199e-06 1.6364e-05 3.79242e-05
14 1 5.45217 2.25334 11.339 7.61961e-06 -1.54784e-05 -1.99709e-05 2.63909e-05
15 1 6.89325 3.87679 9.98322 1.34425e-05 3.78719e-05 2.69031e-05 4.83607e-05
16 1 5.44032 2.81196 8.06017 -3.53927e-05 8.67769e-07 -1.03359e-05 3.68812e-05
17 1 5.42852 3.83223 5.58587 -5.42604e-06 1.56979e-06 7.79332e-06 9.62507e-06
18 1 6.81037 3.27732 0.502805 -2.53445e-05 1.14706e-05 -1.26144e-05 3.05457e-05
19 1 6.85598 1.16515 9.43789 -2.26316e-05 6.1753e-06 -1.43916e-05 2.75216e-05
20 1 6.88752 1.73508 6.13841 1.02535e-05 2.30203e-06 2.20847e-05 2.44575e-05
21 1 6.8586 2.76789 3.69819 -8.87232e-06 -4.48828e-06 1.64181e-05 1.91942e-05
22 1 5.3274 1.72687 1.93128 3.70123e-05 7.56576e-06 -1.11382e-05 3.93854e-05
23 1 5.45819 0.0894802 7.50652 -1.33755e-05 4.28856e-06 -3.31679e-05 3.60195e-05
24 1 5.32303 0.697515 4.37942 3.23151e-05 -3.76507e-06 -7.61064e-06 3.3412e-05
25 1 2.61962 11.6214 10.8883 5.39814e-06 -1.25396e-05 3.50314e-05 3.75977e-05
26 1 6.93298 11.1342 5.60013 4.43641e-05 -1.22435e-05 6.89266e-07 4.60277e-05
27 1 5.30234 10.068 3.96342 3.7427e-05 -2.94959e-05 -2.41394e-05 5.34181e-05
28 1 5.41245 10.6441 0.594112 4.39979e-05 1.46344e-05 3.72628e-05 5.94852e-05
29 1 2.7141 10.6343 0.512965 1.73299e-05 2.36054e-05 2.4486e-05 3.8172e-05
30 1 4.06048 10.5664 8.99234 2.0007e-05 -1.86211e-05 -2.95883e-05 4.02802e-05
31 1 6.83964 10.5974 9.01815 5.83196e-06 -1.38618e-05 7.27501e-07 1.50562e-05
32 1 2.5188 9.49298 7.20502 -3.61133e-05 2.16213e-05 -1.76232e-05 4.56314e-05
33 1 4.11248 9.60865 11.4774 2.79296e-05 4.36302e-06 -2.11591e-06 2.83474e-05
34 1 8.43053 10.0589 3.6975 1.12263e-05 -2.25565e-05 -6.88128e-06 2.61185e-05
35 1 9.93524 9.08891 1.7173 4.02828e-05 3.07909e-05 2.23883e-05 5.54258e-05
36 1 9.7123 0.563104 12.805 -2.98243e-05 1.23825e-05 -2.97387e-05 4.39e-05
37 1 6.82429 9.59899 11.5345 -2.19704e-05 -3.47714e-06 -1.58768e-05 2.73288e-05
38 1 9.62684 10.6188 9.07539 -7.62269e-06 -2.02252e-06 2.2823e-05 2.41472e-05
39 1 8.27813 9.53153 7.12047 3.03349e-05 9.43077e-06 2.88015e-05 4.28797e-05
40 1 6.91861 6.96887 11.2143 1.82625e-05 6.20129e-05 7.31276e-05 9.76052e-05
41 1 8.29901 8.55349 9.72256 2.7798e-05 1.72951e-05 -7.32009e-07 3.27473e-05
42 1 6.90134 7.47408 7.80767 -1.39202e-05 -1.50214e-05 -1.1733e-05 2.36025e-05
43 1 8.39959 7.39323 3.11554 4.34212e-06 1.38227e-05 -2.04091e-05 2.5029e-05
44 1 6.90704 6.09411 1.23486 -2.50386e-05 4.0688e-05 -1.02883e-05 4.88702e-05
45 1 8.2792 4.95436 12.0227 -5.91643e-06 -1.37321e-05 -1.57139e-06 1.50348e-05
46 1 8.31903 5.93561 9.40839 2.33032e-05 -2.77372e-05 -3.66088e-05 5.15034e-05
47 1 6.87733 4.8825 7.48698 5.54281e-06 3.35295e-06 1.13269e-05 1.30485e-05
48 1 8.30698 6.41941 5.93152 1.44539e-05 8.63279e-06 1.73821e-05 2.41987e-05
49 1 6.92274 5.41212 4.0388 -1.64649e-05 1.89326e-05 3.01903e-05 3.92555e-05
50 1 9.73093 6.26166 1.13871 2.39251e-05 -8.12545e-07 -5.76017e-06 2.46221e-05
51 1 8.21705 2.19318 11.4101 -5.50243e-07 -1.2082e-07 -1.1238e-05 1.12521e-05
52 1 9.66349 3.83197 10.0447 -6.25774e-06 6.00155e-06 -8.04945e-06 1.1831e-05
53 1 8.28833 2.78076 8.05225 2.58948e-05 3.80678e-06 -1.98358e-05 3.28403e-05
54 1 8.31687 3.81908 5.58066 1.67093e-05 1.71375e-05 7.55665e-07 2.39471e-05
55 1 9.70925 3.20015 0.397515 -8.76546e-06 1.85867e-05 -5.62864e-06 2.13068e-05
56 1 9.63577 1.14956 9.50485 -2.03142e-05 -1.21623e-05 1.31026e-05 2.70604e-05
57 1 8.37753 0.661893 4.25624 -3.2674e-05 2.02162e-06 -1.23526e-05 3.49895e-05
58 1 8.30644 1.64143 1.87365 -8.02455e-06 -7.55986e-06 1.36004e-06 1.11083e-05
59 1 6.77675 0.660901 0.0642498 -1.25706e-05 -1.4898e-05 -3.73157e-06 1.98467e-05
60 1 8.27835 0.0922867 7.548 2.9276e-05 -1.56525e-05 -1.18058e-05 3.52344e-05
61 1 6.75084 11.7166 2.55591 3.65141e-06 1.33799e-05 -6.79842e-06 1.54458e-05
62 1 5.44864 11.7041 10.9237 1.61218e-05 -1.42644e-05 -2.3144e-08 2.15264e-05
63 1 9.74253 11.112 5.67723 1.08238e-05 -2.19795e-07 -1.33058e-05 1.71537e-05
64 1 8.12994 10.6769 0.682552 -1.7678e-05 1.9289e-05 1.48962e-05 3.01077e-05
65 1 6.71083 9.05471 2.13103 -1.75903e-05 2.27214e-05 2.51658e-05 3.81968e-05
66 1 2.77769 7.93754 0.0329442 -3.7852e-05 -5.50385e-06 -1.51034e-05 4.11239e-05
67 1 2.53576 8.548 9.79757 -3.02957e-05 1.88014e-05 1.28434e-05 3.78982e-05
68 1 11.1395 3.82072 5.66392 2.88592e-06 1.00151e-05 -2.77348e-05 2.96285e-05
69 1 1.17983 3.25127 0.33858 2.05624e-05 8.57535e-06 7.45245e-06 2.34923e-05
70 1 2.58982 2.18788 11.3107 2.25075e-05 1.03674e-06 -1.69198e-05 2.8177e-05
71 1 1.12196 1.68732 6.21578 1.08711e-05 -7.94206e-07 -2.06986e-06 1.10949e-05
72 1 1.15908 2.81419 3.72701 1.88858e-05 1.36117e-05 -7.11947e-07 2.32907e-05
73 1 1.1174 11.106 5.75062 5.45599e-06 1.19364e-06 -1.48154e-05 1.58332e-05
74 1 11.1793 10.02 3.80111 -2.04077e-05 7.40186e-06 -2.85024e-05 3.5828e-05
75 1 1.15495 11.6361 2.32632 -1.38532e-05 2.39373e-05 -8.64416e-06 2.89763e-05
76 1 1.15579 9.02227 1.743 7.7439e-07 -8.41659e-06 -3.04551e-05 3.16062e-05
77 1 11.182 0.634845 4.26244 -2.54485e-05 -1.0261e-05 1.49763e-05 3.12602e-05
78 1 11.0892 11.6447 10.9079 -3.51087e-06 5.81666e-06 1.93149e-05 2.0475e-05
79 1 9.67749 9.637 11.705 -7.14288e-07 -6.00669e-06 -1.06781e-06 6.14253e-06
80 1 9.72212 8.43154 5.2199 -6.58944e-06 -1.31474e-05 7.18125e-06 1.6366e-05
81 1 9.67549 7.0411 11.3754 1.02271e-05 -2.33853e-06 1.6237e-05 1.93314e-05
82 1 11.0299 8.5868 9.74036 -1.9172e-05 2.30981e-05 -7.20501e-06 3.08707e-05
83 1 9.68066 7.48164 7.83136 -2.30389e-06 -2.65402e-05 2.10301e-05 3.39405e-05
84 1 11.1429 7.39065 3.24909 6.93067e-06 -6.79024e-06 -8.43783e-06 1.28584e-05
85 1 11.0754 4.94753 11.9965 1.59177e-05 -1.16953e-05 1.88459e-05 2.73005e-05
86 1 11.0403 5.93928 9.46052 -2.12394e-05 -1.16489e-05 8.65219e-06 2.57229e-05
87 1 9.69415 4.86277 7.52647 3.46437e-06 3.69504e-05 1.30274e-05 3.93325e-05
88 1 9.75889 5.40481 4.07387 2.29636e-05 -1.24322e-05 -1.59603e-05 3.06042e-05
89 1 8.38264 4.31556 2.23539 -6.95919e-06 5.53149e-06 1.11861e-05 1.42883e-05
90 1 11.1108 2.1762 11.3541 1.15482e-05 -2.08241e-05 1.01682e-05 2.5892e-05
91 1 11.1067 2.76672 8.13182 -2.51446e-05 -1.35629e-05 -1.49028e-05 3.22226e-05
92 1 9.74279 1.70525 6.17104 -7.02166e-06 1.91706e-05 6.66396e-06 2.14761e-05
93 1 9.79021 2.76959 3.72257 -1.95647e-05 4.36891e-06 4.43891e-07 2.00514e-05
94 1 11.1616 4.37921 2.15998 -1.92349e-05 -1.70615e-05 -3.01252e-05 3.96056e-05
95 1 1.12674 1.13018 9.5057 -2.3026e-05 1.42047e-05 1.21742e-05 2.96678e-05
96 1 11.0922 0.0725493 7.64058 -9.61773e-06 -5.4717e-06 -2.69697e-05 2.91514e-05
97 1 1.12009 3.88823 10.0687 -4.75443e-06 -3.66733e-05 5.25709e-06 3.7352e-05
98 1 11.1199 6.41476 6.00611 -4.00872e-06 -6.43903e-06 -2.59172e-05 2.70043e-05
99 1 0.949449 7.05621 11.3217 2.41341e-05 1.60788e-05 3.43938e-05 4.4988e-05
100 1 0.977892 6.37929 1.10424 2.13715e-05 -1.32922e-05 3.3768e-05 4.21154e-05
101 1 1.08624 7.48876 7.93382 6.79145e-06 -2.25747e-05 -1.37828e-05 2.73077e-05
102 1 3.88236 8.38927 5.24415 -4.05463e-05 -1.55289e-06 4.17015e-05 5.81844e-05
103 1 2.45211 7.37274 3.25725 7.88154e-06 1.83374e-05 9.67043e-06 2.21787e-05
104 1 2.50136 5.06997 11.9632 -9.60282e-06 -1.49703e-05 3.45989e-06 1.81189e-05
105 1 2.56372 5.97703 9.47375 -2.50676e-06 1.59899e-06 1.15398e-05 1.19167e-05
106 1 1.1025 4.88523 7.62198 1.50114e-05 4.65412e-06 8.24354e-07 1.57379e-05
107 1 2.46803 6.41913 6.05307 1.65278e-05 7.17083e-06 -2.94938e-05 3.45611e-05
108 1 1.10899 5.38913 4.10855 1.5978e-05 8.67157e-07 -2.72331e-05 3.15862e-05
109 1 5.30702 4.38122 2.30547 -1.76082e-05 -2.48658e-07 -3.47309e-06 1.79492e-05
110 1 3.97194 3.28167 0.35732 2.10157e-06 -2.69219e-06 7.81006e-06 8.52417e-06
111 1 3.98953 3.86993 10.0046 3.66191e-06 2.80628e-05 -1.40877e-05 3.16132e-05
112 1 2.5299 2.79304 8.1451 -1.09208e-05 -2.95739e-06 -3.59857e-05 3.77224e-05
113 1 2.47647 3.82433 5.70473 3.5487e-07 1.10733e-05 -1.58725e-05 1.93567e-05
114 1 2.52445 4.48327 2.15274 2.33877e-06 -4.68766e-05 -1.33086e-05 4.87853e-05
115 1 8.20937 11.6655 10.9764 1.46243e-05 -1.62942e-05 -2.77919e-05 3.53802e-05
116 1 4.01503 0.661214 12.8001 1.70642e-05 -2.49785e-05 -1.10644e-05 3.22108e-05
117 1 3.91868 1.74293 6.23216 -1.81072e-05 -1.61803e-05 1.66622e-05 2.945e-05
118 1 3.87098 2.80974 3.77345 2.9895e-05 8.48627e-06 4.3345e-05 5.3334e-05
119 1 2.55528 1.70671 1.85471 -5.79463e-06 -2.98534e-05 4.6969e-06 3.07711e-05
120 1 2.53256 0.0746272 7.65431 -9.64586e-06 -4.99386e-05 -3.13127e-05 5.97277e-05
121 1 2.50376 0.641882 4.28834 9.1353e-06 -1.88583e-05 1.84284e-05 2.79051e-05
122 1 1.16902 0.570814 12.7641 -2.70132e-05 -1.36643e-06 1.12946e-05 2.93113e-05
123 1 3.87535 11.1221 5.75735 -2.39745e-05 -8.86971e-06 2.08246e-06 2.56473e-05
124 1 2.47893 10.0386 3.82326 -2.48246e-06 2.96598e-05 -8.11877e-06 3.08509e-05
125 1 3.96714 11.6894 2.46384 1.42544e-06 -2.12022e-05 -1.87596e-05 2.83459e-05
126 1 1.12104 10.5611 9.09111 6.98274e-06 1.04598e-06 2.99072e-05 3.07293e-05
127 1 11.0831 9.52414 7.19238 -8.45116e-06 4.16713e-05 1.05191e-05 4.38015e-05
128 1 3.97657 9.04493 2.03378 3.04842e-06 3.41221e-06 4.0066e-05 4.03264e-05
129 1 1.06534 9.61355 11.689 -8.41273e-06 -2.07349e-06 -1.31095e-05 1.57141e-05
130 1 1.10725 8.42864 5.2842 -4.88465e-06 -1.90166e-06 2.62552e-05 2.67733e-05
131 1 4.04608 1.1536 9.43691 1.28843e-05 -2.68659e-05 2.32335e-05 3.77833e-05
132 1 9.83777 11.6738 2.35059 -1.42188e-05 1.15388e-07 -2.19046e-05 2.61151e-05
