ITEM: TIMESTEP
0
ITEM: NUMBER OF ATOMS
147
ITEM: BOX BOUNDS pp pp pp
0.0000000000000000e+00 1.1400361000000000e+01
0.0000000000000000e+00 1.2098903999999999e+01
0.0000000000000000e+00 1.2816801000000000e+01
ITEM: ATOMS id type x y z fx fy fz v_fmag
1 1 1.43291 12.086 2.68359 1.83298e-05 1.69755e-05 6.47384e-06 2.58081e-05
2 1 5.13664 4.18742 9.88618 2.27639e-05 4.8224e-05 -2.76445e-06 5.33984e-05
3 1 7.15966 5.70994 12.2822 -3.65485e-05 -3.99298e-05 -2.48126e-05 5.9547e-05
4 1 9.24733 7.14358 1.95402 5.82828e-05 -2.97465e-05 -3.03685e-05 7.21386e-05
5 1 6.70374 6.66895 1.78375 -1.12683e-05 5.6332e-06 -7.08858e-06 1.44553e-05
6 1 6.14906 7.63329 4.07104 -8.93731e-06 -2.81682e-05 -1.26683e-05 3.21529e-05
7 1 4.92131 6.34871 5.92082 -4.9649e-05 8.87063e-06 1.00145e-07 5.04353e-05
8 1 6.24541 5.501 7.93748 -4.00014e-05 -2.95091e-05 2.20197e-05 5.43669e-05
9 1 7.00996 7.83385 8.41341 1.90763e-05 6.02317e-05 2.03461e-05 6.63756e-05
10 1 7.95573 8.04848 12.7794 2.76831e-06 2.45674e-05 3.55068e-05 4.32661e-05
11 1 8.79058 10.4066 0.547673 1.07179e-05 -3.35334e-06 3.94046e-05 4.09737e-05
12 1 7.49963 8.97778 2.27191 3.43126e-05 -8.92805e-06 2.21936e-05 4.18285e-05
13 1 9.31221 10.4164 4.62124 1.25601e-05 1.73555e-05 -1.63243e-05 2.69342e-05
14 1 5.69562 8.66487 6.40932 3.04817e-05 2.61779e-05 -6.45098e-07 4.01849e-05
15 1 7.79312 10.1671 8.90061 8.2504e-06 -2.10414e-05 4.75064e-05 5.26086e-05
16 1 5.8738 6.53933 10.2771 -6.2006e-05 -1.1306e-05 6.67627e-06 6.3381e-05
17 1 6.63977 4.46999 5.60916 -1.10372e-05 5.61771e-06 -2.58124e-05 2.86297e-05
18 1 7.94649 5.81657 3.75057 -4.35248e-06 8.37965e-06 2.49537e-05 2.66805e-05
19 1 8.41764 4.77032 1.44182 1.45745e-05 -1.8987e-05 -8.07483e-06 2.52612e-05
20 1 2.90632 9.23028 8.61784 -8.30224e-05 -1.84432e-05 8.70573e-06 8.54907e-05
21 1 4.98069 10.7413 11.079 4.57187e-05 3.41267e-05 3.32316e-05 6.6024e-05
22 1 8.04086 11.3162 2.74849 -2.33757e-06 -2.04933e-05 1.95748e-05 2.84361e-05
23 1 6.48381 11.0012 6.88106 -3.08198e-05 -1.47661e-05 2.3965e-05 4.17399e-05
24 1 6.11103 12.0458 9.20184 -2.28954e-05 -2.84744e-05 1.8007e-05 4.07338e-05
25 1 8.77212 1.65177 2.88174 -1.89875e-05 -2.80617e-05 -1.34426e-05 3.64512e-05
26 1 7.62169 0.222984 4.99791 3.23368e-05 4.88051e-06 6.60763e-06 3.33639e-05
27 1 9.64139 1.7066 7.29843 -4.46621e-05 9.32698e-06 -6.44326e-06 4.60783e-05
28 1 8.17713 1.48939 11.6815 5.49565e-05 1.02331e-05 7.90846e-05 9.68468e-05
29 1 7.11851 0.273583 0.743994 5.11766e-06 -3.69217e-05 7.71029e-07 3.72827e-05
30 1 9.78772 4.11697 3.45541 4.07565e-06 -7.50435e-05 3.44308e-05 8.26658e-05
31 1 8.3711 2.57652 5.26974 -5.13273e-05 9.50453e-06 -1.04111e-05 5.32279e-05
32 1 7.94424 3.61325 7.61554 -1.99761e-05 1.04036e-05 9.73906e-06 2.45383e-05
33 1 6.84177 2.30484 9.60997 6.53722e-05 3.67685e-05 -6.92694e-07 7.50062e-05
34 1 6.45347 3.33279 11.9367 6.13817e-05 5.474e-05 -1.39506e-05 8.34194e-05
35 1 6.65744 8.87609 10.7695 6.37972e-05 3.75765e-05 -8.62134e-07 7.4046e-05
36 1 5.34832 9.70258 8.75243 2.07879e-05 4.48909e-05 2.90393e-05 5.73638e-05
37 1 7.42794 11.214 11.2552 -2.01214e-05 -2.2355e-05 1.98296e-05 3.60254e-05
38 1 8.91792 11.4538 6.98115 5.22714e-06 1.58088e-05 -1.14923e-05 2.02315e-05
39 1 9.45431 8.29138 8.52613 -6.94007e-05 -4.82877e-06 1.10801e-06 6.95773e-05
40 1 8.31832 7.00765 10.4202 5.57969e-05 4.15483e-05 1.80674e-06 6.95904e-05
41 1 10.4284 8.4759 0.155486 6.60399e-06 -2.64356e-05 5.20466e-06 2.77406e-05
42 1 11.21 10.7878 0.532383 6.6359e-05 -9.2012e-06 -2.00523e-05 6.99304e-05
43 1 10.5704 9.28117 2.60606 -3.43615e-05 1.06803e-07 -4.33779e-05 5.53387e-05
44 1 0.298064 10.7355 4.53074 -3.94312e-05 3.59276e-05 -2.33609e-06 5.33954e-05
45 1 7.39165 6.80476 6.06182 1.86804e-05 -1.09694e-05 -3.27984e-05 3.93067e-05
46 1 8.15015 9.11883 6.53963 -3.80724e-06 -4.94702e-06 3.23244e-06 7.02971e-06
47 1 9.11043 9.34589 10.9417 -3.18184e-05 3.39675e-05 -4.76959e-05 6.66416e-05
48 1 9.85174 11.695 11.3976 6.39943e-05 4.60467e-05 1.32186e-05 7.99394e-05
49 1 10.9483 0.880072 9.29083 2.29333e-07 -1.0305e-05 5.33045e-06 1.16043e-05
50 1 9.99856 5.13589 10.0336 1.31707e-05 4.13936e-05 -1.03817e-06 4.34509e-05
51 1 9.84471 7.21939 6.14997 -3.7205e-05 -6.4806e-06 1.35345e-05 4.01172e-05
52 1 10.7505 7.46366 10.517 -1.0271e-05 -4.71054e-05 6.64475e-06 4.86679e-05
53 1 10.2266 10.6191 9.01018 4.15793e-05 6.80834e-05 1.68789e-05 8.15419e-05
54 1 8.73478 8.10993 4.20562 -1.79997e-05 -1.06109e-05 3.50102e-05 4.07713e-05
55 1 10.955 5.37861 1.6498 2.20275e-05 -3.18063e-05 1.94278e-05 4.32931e-05
56 1 0.644439 6.67667 12.559 -2.79153e-05 -2.23438e-05 3.26256e-07 3.57577e-05
57 1 8.53827 0.416033 9.33673 6.57468e-06 6.58793e-05 1.68682e-05 6.83216e-05
58 1 11.2414 2.09422 3.09918 -3.23081e-05 -5.86272e-06 -5.1151e-06 3.32318e-05
59 1 10.0374 0.655975 4.92578 -3.51256e-05 -6.01699e-05 1.10811e-05 7.0548e-05
60 1 10.5618 1.97372 11.5646 -2.91039e-05 -3.41796e-05 -2.77174e-05 5.27592e-05
61 1 9.97019 2.89018 1.06744 -2.69743e-06 -5.72284e-05 -3.58567e-05 6.75875e-05
62 1 10.7837 2.97196 5.41706 -6.05608e-06 1.73085e-05 -2.49482e-06 1.85063e-05
63 1 10.3883 4.07652 7.68784 2.9154e-05 2.73324e-05 -2.69299e-05 4.81896e-05
64 1 9.25109 2.78441 9.60368 -3.1171e-05 1.73325e-05 2.27933e-05 4.23271e-05
65 1 8.84736 3.8562 11.9036 -4.1774e-05 -2.5907e-05 -2.54709e-05 5.53625e-05
66 1 11.2668 4.31403 12.0689 8.46418e-05 -2.04253e-05 -4.90764e-05 9.99496e-05
67 1 11.0409 6.9612 3.75297 -3.13001e-05 -6.94994e-05 5.40634e-06 7.64139e-05
68 1 9.08308 4.91347 5.74145 -1.18744e-05 6.3398e-07 -1.69971e-05 2.07438e-05
69 1 8.68941 5.96256 8.06052 4.74724e-05 1.47512e-05 -3.91438e-06 4.98653e-05
70 1 7.55034 4.66853 9.94239 -1.20033e-05 -1.75481e-05 -7.04619e-06 2.23978e-05
71 1 9.61016 6.16328 12.4287 6.4902e-05 4.23935e-05 -1.16247e-05 7.83876e-05
72 1 10.3874 11.8437 2.58143 -3.98048e-05 -1.75055e-05 -2.55924e-05 5.04563e-05
73 1 10.5785 9.55501 6.57489 3.92156e-06 1.82909e-05 9.09855e-06 2.08019e-05
74 1 3.22648 8.21158 6.21131 -3.76489e-05 -1.27724e-05 1.2104e-05 4.15581e-05
75 1 4.90904 8.47548 2.08877 -2.20086e-05 -6.60059e-05 6.25859e-06 6.98593e-05
76 1 3.50058 1.56677 5.16332 -2.55477e-05 -1.31815e-05 -4.00021e-05 4.92606e-05
77 1 3.09452 2.66406 7.45346 -5.39317e-05 1.74722e-06 2.65721e-06 5.40253e-05
78 1 1.97874 1.36877 9.38774 9.63527e-06 1.35082e-05 -1.92605e-05 2.5422e-05
79 1 1.57001 2.45063 11.7302 8.83991e-05 5.52344e-05 5.42727e-06 0.000104378
80 1 3.50714 3.85955 1.2829 -1.31248e-05 1.71931e-05 1.68386e-05 2.74117e-05
81 1 2.69906 4.8298 3.46599 2.5849e-05 -4.24141e-06 -1.16992e-05 2.86886e-05
82 1 4.66116 2.96157 3.27543 2.66954e-05 1.17439e-05 1.45835e-05 3.26074e-05
83 1 1.77252 3.44752 5.40091 -2.98005e-05 5.65833e-06 -1.85265e-05 3.55432e-05
84 1 0.287001 3.25692 9.68793 -8.56032e-06 7.20192e-05 -2.60788e-05 7.70724e-05
85 1 2.28487 4.81685 12.1827 2.325e-05 -5.93934e-05 -1.2328e-05 6.49624e-05
86 1 3.80197 9.453 0.108776 2.1075e-05 -4.68169e-05 3.85136e-06 5.1486e-05
87 1 1.68805 6.68772 2.09789 -5.11635e-06 -5.08226e-05 1.25369e-05 5.25955e-05
88 1 0.822317 7.73283 6.00866 2.12608e-05 1.65521e-05 3.81581e-06 2.72131e-05
89 1 11.1411 6.41717 8.08079 -4.35175e-06 1.52382e-05 -4.48804e-05 4.75961e-05
90 1 1.39847 4.54377 7.72375 -6.45246e-05 5.31863e-06 4.71794e-06 6.49151e-05
91 1 2.78467 1.53182 0.871028 3.50361e-05 4.14695e-05 -4.10836e-06 5.44438e-05
92 1 3.28815 0.536754 11.3777 3.60762e-05 2.43234e-05 -8.95747e-06 4.44224e-05
93 1 4.801 0.782033 7.18237 -3.53201e-05 -2.07768e-05 -6.1116e-06 4.14311e-05
94 1 2.36372 0.285566 7.06037 1.54154e-05 -1.79112e-05 -4.81361e-05 5.3624e-05
95 1 0.294046 1.10929 0.76722 2.15529e-05 -6.14958e-06 -2.85074e-05 3.62632e-05
96 1 2.25424 2.38494 3.16266 1.43817e-05 -6.10571e-05 -1.29317e-05 6.40471e-05
97 1 1.06958 1.0345 5.02867 1.0274e-05 4.22464e-07 -3.81314e-05 3.94935e-05
98 1 0.680839 2.15894 7.37424 3.75584e-05 2.74113e-05 -2.92519e-05 5.49335e-05
99 1 1.07199 3.50469 1.29435 -1.66835e-05 -2.34035e-05 -5.41968e-05 6.13462e-05
100 1 0.098121 5.33652 5.60094 -2.32679e-05 -1.65994e-05 -1.97991e-06 2.86506e-05
101 1 1.41407 8.89493 0.950773 5.64573e-05 -3.48238e-05 -2.62406e-05 7.13351e-05
102 1 2.1482 11.3021 0.399203 -1.40767e-05 -4.0038e-05 9.97205e-06 4.35963e-05
103 1 1.59449 10.0353 6.59664 -2.34028e-05 1.68536e-05 2.02443e-05 3.52359e-05
104 1 3.09703 10.2052 2.40529 -2.25921e-07 -6.77151e-05 3.9283e-05 7.8285e-05
105 1 11.327 11.8996 6.94466 -3.88e-05 -3.37447e-05 -2.63624e-05 5.77851e-05
106 1 0.852685 0.0744305 11.2844 -6.28489e-07 -1.13188e-07 -6.67304e-06 6.70353e-06
107 1 3.90323 0.521815 2.85001 -2.26395e-05 -2.07883e-05 6.2362e-06 3.13622e-05
108 1 2.71756 11.2506 4.70309 -1.02045e-05 9.65562e-06 2.50996e-05 2.87638e-05
109 1 2.13515 6.90634 8.14325 4.31271e-06 1.74529e-05 -1.74863e-05 2.50794e-05
110 1 6.86778 9.94638 4.56177 1.13945e-05 -2.53666e-05 -7.04211e-06 2.8686e-05
111 1 1.01906 5.6038 10.1244 -7.49676e-06 -2.0972e-05 1.97467e-05 2.97651e-05
112 1 4.58843 11.7866 0.565975 4.52765e-05 1.13624e-05 -1.17435e-07 4.66806e-05
113 1 5.95256 4.35538 1.35816 -2.07464e-05 1.84337e-05 -1.19338e-05 3.02098e-05
114 1 5.3471 5.32193 3.63515 -1.00632e-05 2.11487e-05 1.58214e-05 2.8264e-05
115 1 4.1805 3.98946 5.51577 -4.83032e-06 1.82897e-06 -2.85012e-05 2.89654e-05
116 1 3.81507 5.02669 7.84746 3.56654e-05 5.40685e-05 -2.46866e-05 6.9317e-05
117 1 2.70532 3.73153 9.79579 6.5588e-08 2.79624e-05 -2.02287e-05 3.45123e-05
118 1 4.72043 5.23943 12.1822 1.63799e-05 2.36719e-05 2.08059e-06 2.88616e-05
119 1 4.00786 2.88233 11.8042 -3.91934e-05 -2.7176e-05 -2.30943e-05 5.29906e-05
120 1 5.48923 7.57647 12.6183 1.11028e-05 1.35217e-05 3.71487e-06 1.78861e-05
121 1 3.54236 7.17611 3.88006 -1.09516e-05 2.19853e-05 -1.0126e-06 2.45829e-05
122 1 2.48727 5.85846 5.79164 -8.96297e-06 -2.20051e-05 2.84608e-06 2.39303e-05
123 1 4.56065 7.37031 8.26202 -5.32721e-05 -3.69765e-05 3.21614e-05 7.23846e-05
124 1 3.43547 6.07656 10.1942 6.56326e-05 5.12903e-05 2.06409e-05 8.58159e-05
125 1 4.21218 8.39934 10.616 9.92802e-06 -6.25518e-05 8.86915e-06 6.39528e-05
126 1 6.29241 9.93865 0.298671 6.32455e-06 1.08885e-05 1.34866e-05 1.84512e-05
127 1 4.15507 6.17816 1.65903 -2.15184e-05 7.65678e-06 -2.03692e-05 3.06035e-05
128 1 4.41096 1.83894 9.4823 -6.87821e-06 1.95865e-05 3.32123e-05 3.91663e-05
129 1 5.51779 3.15198 7.56306 8.1554e-06 3.53894e-05 1.29498e-05 3.85567e-05
130 1 5.92861 2.11278 5.28064 -1.29262e-05 1.42776e-05 -7.26825e-06 2.05856e-05
131 1 1.59335 8.74835 3.78715 -5.95373e-05 -5.41965e-06 -3.18826e-05 6.77537e-05
132 1 4.38145 9.45395 4.39441 -2.33275e-05 -3.6642e-06 2.57415e-05 3.49317e-05
133 1 0.481676 8.75081 8.56454 5.12598e-05 3.6242e-05 7.33509e-07 6.2782e-05
134 1 1.23236 11.0955 8.97111 -2.65639e-05 -3.03648e-05 -1.3994e-05 4.27024e-05
135 1 1.77302 7.93644 10.5798 3.49299e-05 6.10807e-06 3.89965e-05 5.2708e-05
136 1 2.5372 10.2671 10.9568 -1.78181e-05 -2.85503e-05 -7.45272e-06 3.44695e-05
137 1 5.62039 10.7979 2.56718 3.20766e-07 1.36989e-05 2.16727e-05 2.56411e-05
138 1 4.03991 10.5295 6.74428 -4.21346e-05 5.29506e-05 1.19412e-06 6.76795e-05
139 1 3.66874 11.5779 9.07378 4.43768e-05 4.01363e-05 1.56321e-05 6.18432e-05
140 1 6.3467 1.08404 3.02466 -5.02098e-05 -9.65522e-06 2.17084e-05 5.55473e-05
141 1 5.17963 11.8149 4.86896 -5.53754e-05 -4.54209e-06 1.96752e-05 5.89422e-05
142 1 7.22867 1.26021 7.29348 1.32689e-05 3.06783e-05 4.69078e-05 5.75983e-05
143 1 5.72924 0.986746 11.5039 -4.05588e-06 -1.16097e-06 1.16411e-05 1.2382e-05
144 1 5.29128 2.0177 0.997365 1.52961e-05 2.02494e-06 -6.39302e-06 1.67015e-05
145 1 7.16484 3.48212 3.30616 -2.40126e-05 -3.31117e-05 -6.94641e-06 4.14878e-05
146 1 3.01757 7.17575 12.583 6.14644e-05 -2.16704e-05 3.85867e-05 7.57391e-05
147 1 0.152963 9.77219 11.0583 1.90494e-05 3.0427e-05 -2.30219e-05 4.26461e-05
