ITEM: TIMESTEP
0
ITEM: NUMBER OF ATOMS
131
ITEM: BOX BOUNDS pp pp pp
0.0000000000000000e+00 1.1400361000000000e+01
0.0000000000000000e+00 1.2098903999999999e+01
0.0000000000000000e+00 1.2816801000000000e+01
ITEM: ATOMS id type x y z fx fy fz v_fmag
1 1 10.401 0.210335 0.870844 -3.61069e-05 1.89779e-05 3.80027e-05 5.57501e-05
2 1 5.95113 8.93086 5.1306 -1.75333e-05 2.71145e-06 1.92478e-05 2.61772e-05
3 1 7.44946 9.54612 3.0151 -2.24994e-06 2.36904e-05 1.37683e-05 2.7493e-05
4 1 7.48154 8.01436 0.903495 -3.73139e-05 5.00017e-05 2.21777e-05 6.62144e-05
5 1 7.41792 6.53122 11.5454 -1.17445e-05 1.59155e-06 2.91618e-05 3.14782e-05
6 1 5.95718 5.9252 9.37897 -1.30361e-05 -1.6441e-05 -1.35618e-05 2.49834e-05
7 1 8.40272 6.99427 7.29554 2.98108e-05 -7.15784e-06 -2.72477e-05 4.10165e-05
8 1 6.94127 6.32583 5.14253 -9.82621e-07 -3.7434e-05 9.83145e-06 3.8716e-05
9 1 8.55606 6.89632 3.05877 7.58869e-06 -1.57112e-05 1.13016e-05 2.07884e-05
10 1 8.42656 5.45424 0.878812 -1.57966e-05 -3.04022e-05 -4.9588e-06 3.46182e-05
11 1 5.9376 4.44664 11.5376 4.15286e-05 1.48378e-05 5.6854e-06 4.44647e-05
12 1 6.91977 3.3292 9.39716 4.77112e-05 -3.98388e-06 2.82856e-05 5.56085e-05
13 1 7.02505 4.77894 7.23782 -1.48321e-05 2.77289e-05 6.05767e-06 3.20247e-05
14 1 5.44366 4.2041 5.11508 9.6818e-06 2.15094e-05 2.1356e-06 2.36845e-05
15 1 9.47144 4.32184 3.03216 -4.78821e-06 9.10023e-06 3.80932e-05 3.94568e-05
16 1 6.94528 3.34469 0.872761 3.28588e-05 -1.24232e-05 -2.74166e-07 3.51299e-05
17 1 6.92116 1.89318 11.5512 2.11321e-05 -2.17879e-05 5.03114e-06 3.07667e-05
18 1 5.44848 1.23944 9.44186 -5.05608e-05 -3.24176e-05 3.84961e-06 6.0184e-05
19 1 7.9339 2.18459 7.27471 -2.0351e-05 2.12919e-07 3.14132e-05 3.74298e-05
20 1 6.42054 1.59347 5.13476 -2.09985e-05 3.27303e-06 2.6286e-05 3.38025e-05
21 1 7.94735 2.19673 2.97298 2.09495e-05 -7.50144e-06 -2.94348e-06 2.24459e-05
22 1 5.44696 1.21808 0.870616 2.35153e-05 3.3322e-06 2.09207e-05 3.16504e-05
23 1 8.87078 11.664 7.30708 -2.84785e-05 -1.78244e-05 1.36988e-05 3.62821e-05
24 1 8.91757 11.6628 2.99212 3.57494e-05 4.20091e-06 4.06167e-05 5.42714e-05
25 1 5.54397 11.8015 11.5575 2.04758e-05 -1.60695e-05 4.28467e-06 2.63788e-05
26 1 3.97623 11.2378 9.36774 2.37714e-05 3.15281e-05 8.02497e-06 4.02927e-05
27 1 6.35532 0.120208 7.29496 5.34742e-06 -3.54182e-06 5.35105e-06 8.35303e-06
28 1 4.95008 11.5732 5.14865 1.22395e-05 -5.45524e-06 -1.29185e-05 1.86132e-05
29 1 3.97613 11.1796 0.860111 -1.33318e-05 -4.35367e-06 4.38039e-05 4.59943e-05
30 1 6.46507 9.19934 11.5701 -2.77448e-05 -2.56036e-05 1.1138e-05 3.93621e-05
31 1 7.4379 9.54573 7.28834 1.72561e-05 -2.7059e-05 1.7755e-05 3.6677e-05
32 1 4.93908 8.57948 9.41651 -1.40356e-05 2.99338e-06 -2.60591e-05 2.97495e-05
33 1 7.41281 8.04496 9.43236 3.27609e-05 2.01616e-05 4.46722e-05 5.89523e-05
34 1 6.48602 10.6548 0.904837 2.1926e-06 -3.05694e-05 2.43417e-05 3.91384e-05
35 1 9.91424 10.588 5.16065 1.74895e-06 -2.10936e-05 -3.63814e-05 4.20904e-05
36 1 9.00809 10.1126 0.896704 3.51913e-05 -7.18102e-06 -1.08456e-05 3.75183e-05
37 1 0.0136956 8.15361 11.5497 -6.93073e-06 -2.70023e-05 -7.20662e-06 2.8794e-05
38 1 9.91206 7.55299 9.42926 -4.99119e-05 -1.06761e-06 2.76859e-06 5.00001e-05
39 1 0.00845492 11.1611 7.25825 -1.98451e-06 1.1365e-05 7.3752e-06 1.36929e-05
40 1 8.43364 8.44593 5.15377 3.25013e-05 1.81533e-05 3.53376e-05 5.13286e-05
41 1 9.91152 9.08993 3.06845 4.12461e-05 -2.37871e-05 1.53965e-05 5.00412e-05
42 1 10.0143 7.54228 0.928424 -1.62966e-06 -2.64063e-05 -3.19374e-05 4.14722e-05
43 1 9.89923 6.05253 11.5839 -3.32926e-05 -6.50197e-06 3.27958e-06 3.40797e-05
44 1 8.43492 5.43596 9.38532 3.35416e-05 -2.91968e-06 2.03365e-05 3.93337e-05
45 1 9.92505 9.05508 7.27581 -5.67041e-05 -2.01085e-05 -2.35208e-05 6.45982e-05
46 1 9.3834 5.72438 5.2587 -1.99096e-06 -3.36997e-05 1.14183e-05 3.56372e-05
47 1 10.8883 7.84255 5.13963 1.62691e-05 2.46549e-05 -3.12839e-05 4.30259e-05
48 1 10.9445 4.92418 0.928264 1.181e-05 -5.24917e-06 -3.30652e-05 3.55013e-05
49 1 8.43506 3.95071 11.5314 1.83862e-05 7.89735e-06 1.28277e-05 2.37691e-05
50 1 9.42476 2.81021 9.3734 -2.45143e-05 1.13227e-05 -1.6119e-05 3.1448e-05
51 1 0.349912 3.83478 7.31284 -1.69263e-05 -1.40558e-05 -1.44695e-05 2.63331e-05
52 1 7.94651 3.6384 5.09336 2.62722e-05 2.78121e-05 -7.20676e-06 3.89317e-05
53 1 0.553385 3.68084 3.0422 3.81877e-05 -1.14401e-05 9.13911e-06 4.08986e-05
54 1 9.42318 2.83346 0.867995 -4.1675e-05 -5.66205e-06 1.60016e-05 4.49991e-05
55 1 9.40253 1.31403 11.5326 -3.01729e-05 -4.70995e-06 -1.13216e-05 3.25694e-05
56 1 7.91366 0.699311 9.42902 -7.8353e-06 -1.13451e-05 -1.70043e-05 2.18917e-05
57 1 10.4439 1.58417 7.28335 1.75556e-05 1.05079e-05 -4.00282e-06 2.0848e-05
58 1 8.92524 1.05356 5.1349 -7.88797e-06 -1.71945e-06 -2.13748e-07 8.07603e-06
59 1 10.3987 1.65945 2.98732 1.53733e-05 8.96834e-06 2.43793e-05 3.01847e-05
60 1 7.9252 0.694362 0.842309 1.3229e-05 3.04228e-05 -7.97029e-06 3.41186e-05
61 1 0.0413538 0.570322 5.11253 -5.83243e-06 -2.03278e-05 -2.30967e-05 3.1316e-05
62 1 6.43641 10.6723 9.39113 -3.02615e-05 7.78922e-06 1.11249e-05 3.31691e-05
63 1 7.42111 11.0596 5.15816 1.96815e-05 5.75211e-06 2.02629e-06 2.06047e-05
64 1 8.92872 8.5823 11.5797 -7.13263e-06 -1.43509e-05 -1.01785e-05 1.89848e-05
65 1 8.90513 10.139 9.43907 -2.96011e-05 -2.42583e-05 -7.78891e-06 3.90558e-05
66 1 4.96961 10.0257 7.26847 1.89651e-05 3.26467e-05 2.14867e-05 4.34415e-05
67 1 4.97329 10.0776 3.00446 4.25356e-05 -8.43387e-06 2.33121e-05 4.92327e-05
68 1 3.4572 7.96308 7.26532 -1.11033e-05 2.27673e-06 -2.37721e-05 2.63359e-05
69 1 1.99577 7.37326 5.12446 4.15196e-05 7.22135e-06 -2.72536e-05 5.01875e-05
70 1 3.48794 7.96684 2.98577 3.78543e-06 1.11915e-05 -3.20731e-06 1.22419e-05
71 1 3.35804 6.50142 0.833772 -3.09649e-06 3.32849e-05 2.56386e-05 4.21285e-05
72 1 0.991038 5.54499 11.6009 4.17464e-05 3.30461e-06 8.78851e-07 4.18862e-05
73 1 1.93972 4.4003 9.43667 1.61762e-05 8.54618e-06 -1.63994e-05 2.45693e-05
74 1 1.96937 5.86951 7.25725 7.66603e-06 1.95699e-05 6.08573e-06 2.18812e-05
75 1 0.463207 5.32828 5.10468 1.80176e-05 5.18373e-06 -3.0286e-05 3.56195e-05
76 1 4.41139 5.36803 2.96412 -1.78961e-05 3.53565e-05 -1.32592e-05 4.1787e-05
77 1 2.00662 4.29462 0.866116 -1.93613e-05 -2.00986e-05 -2.58137e-05 3.80153e-05
78 1 1.97808 2.85581 11.5209 1.24636e-05 -6.38986e-07 1.83517e-05 2.21931e-05
79 1 0.50391 2.25421 9.38485 8.52263e-06 -5.52507e-06 -3.28299e-05 3.43652e-05
80 1 2.88169 3.35241 7.29051 -1.30789e-06 -1.8542e-06 3.48634e-05 3.49372e-05
81 1 1.49904 1.12626 2.97993 -1.60018e-05 9.11237e-06 4.74277e-06 1.90154e-05
82 1 3.01799 3.20985 2.97605 -1.73438e-05 2.26533e-05 1.02484e-05 3.03152e-05
83 1 0.490662 2.26001 0.861749 2.97853e-05 2.62147e-05 1.40682e-05 4.20986e-05
84 1 3.97614 0.592812 2.99428 -1.73256e-05 -1.14457e-05 -1.61778e-05 2.6323e-05
85 1 11.3904 9.6541 9.40469 1.98657e-05 -1.99931e-08 -1.39574e-05 2.42787e-05
86 1 0.985132 8.50002 7.26403 2.37555e-05 -5.42718e-06 1.33937e-05 2.78059e-05
87 1 0.0118271 11.1417 2.98895 -2.55674e-05 -7.21655e-06 -1.02811e-05 2.84864e-05
88 1 10.8739 6.38569 7.31534 -6.97046e-06 2.72734e-05 -8.43728e-06 2.93873e-05
89 1 0.973194 8.45999 2.98816 1.92504e-05 9.79227e-06 -1.30942e-05 2.52572e-05
90 1 1.88603 5.89468 2.94741 -9.96507e-06 -5.77846e-06 1.17891e-05 1.64826e-05
91 1 0.496026 0.757924 11.5357 1.63436e-05 4.28003e-05 -4.51596e-05 6.43302e-05
92 1 10.894 4.93445 9.48525 -3.56034e-05 -3.60624e-05 2.81315e-06 5.07545e-05
93 1 10.9114 3.41044 11.5627 -3.59377e-05 1.33655e-05 -2.28181e-05 4.46186e-05
94 1 10.4758 3.12331 5.14808 -8.42824e-06 -1.31819e-05 -3.0445e-06 1.59395e-05
95 1 10.4036 0.151986 9.41021 2.50228e-05 -4.58043e-06 2.9728e-05 3.91264e-05
96 1 1.58117 1.13513 7.22232 -2.2586e-05 -2.59175e-05 -9.25908e-06 3.5603e-05
97 1 0.995286 7.01852 9.40659 2.98438e-06 3.89656e-06 -3.5977e-05 3.63103e-05
98 1 3.46944 9.45705 5.12198 3.66633e-05 -3.02026e-05 -3.02552e-05 5.63185e-05
99 1 2.50046 7.63902 11.4747 -3.88376e-05 -3.97047e-05 -2.21831e-05 5.98073e-05
100 1 2.49112 10.5564 2.97227 -7.07164e-06 2.28753e-05 -4.24518e-05 4.87385e-05
101 1 4.94063 8.57199 0.86217 2.78311e-05 -3.36702e-05 -1.38666e-05 4.58316e-05
102 1 4.95703 7.08887 11.5303 1.64549e-05 2.64931e-06 -4.28263e-06 1.72083e-05
103 1 3.47702 6.45693 9.37736 -9.52204e-06 3.65731e-06 4.63217e-06 1.12028e-05
104 1 5.9318 7.44871 7.27912 1.01656e-05 -2.31054e-05 3.58866e-05 4.38754e-05
105 1 4.45907 6.82148 5.12121 -5.56726e-06 -5.17641e-06 2.0671e-05 2.20246e-05
106 1 6.00056 7.42689 2.99346 1.83974e-05 3.59753e-05 1.52498e-05 4.31885e-05
107 1 5.89414 5.96159 0.854747 -2.05234e-05 2.53692e-05 -2.36241e-05 4.02853e-05
108 1 3.46356 4.97726 11.5458 -3.52509e-05 -3.66073e-08 -2.17429e-05 4.14172e-05
109 1 4.42982 3.85999 9.40439 -3.46339e-05 -1.04678e-06 1.67536e-05 3.84875e-05
110 1 4.49611 5.32682 7.24504 -8.82131e-06 -3.91569e-05 -8.45711e-07 4.01471e-05
111 1 2.93123 4.73267 5.08404 2.65546e-05 1.12173e-05 -1.56502e-05 3.2801e-05
112 1 6.94527 4.84685 2.99666 -2.7059e-06 -3.7011e-06 7.75137e-06 9.00577e-06
113 1 4.4687 3.82239 0.864082 -1.87361e-05 -1.02932e-05 2.88024e-06 2.15705e-05
114 1 4.44341 2.34963 11.5446 -3.39931e-05 -2.43791e-05 2.87805e-05 5.07759e-05
115 1 2.98135 1.74925 9.36801 1.14212e-05 -3.43591e-06 -6.59181e-06 1.36273e-05
116 1 5.39686 2.71291 7.27691 -2.21399e-05 -1.62915e-05 8.21877e-06 2.86904e-05
117 1 3.8779 2.11148 5.16197 1.03948e-05 1.99297e-05 5.63142e-07 2.24847e-05
118 1 5.47251 2.70947 3.00704 -5.85028e-05 3.03957e-06 1.66986e-05 6.09152e-05
119 1 2.96102 1.6984 0.848562 -1.76468e-05 3.48934e-05 -2.56565e-05 4.67677e-05
120 1 6.45195 0.0924191 3.00604 2.23125e-05 -4.05959e-06 -2.15608e-05 3.12921e-05
121 1 1.46408 10.2724 11.4992 -4.20615e-05 -3.28769e-06 -1.42355e-05 4.45267e-05
122 1 3.01229 0.224816 11.5218 3.15771e-05 2.76214e-05 3.2895e-06 4.20818e-05
123 1 1.47965 11.7572 9.38315 -2.76779e-05 -8.68003e-06 -5.66342e-06 2.95548e-05
124 1 2.47882 12.015 5.07293 5.73329e-06 2.50072e-07 5.88027e-06 8.21649e-06
125 1 1.46991 11.6921 0.853676 3.98336e-05 -2.42906e-05 2.0058e-05 5.07846e-05
126 1 3.96636 9.74409 11.5276 3.44148e-05 -2.71438e-07 1.11172e-06 3.44339e-05
127 1 2.47143 9.14363 9.37554 6.19355e-06 5.80727e-06 -1.95905e-05 2.13511e-05
128 1 2.49692 10.6273 7.24704 -7.64813e-06 1.85014e-05 8.58071e-06 2.17813e-05
129 1 0.967727 9.95804 5.11484 7.31035e-06 2.5507e-05 -4.23529e-05 4.99782e-05
130 1 2.40465 9.08743 0.827634 -1.98619e-05 3.2417e-05 -3.02589e-05 4.85897e-05
131 1 10.3362 10.7762 11.5508 -1.53618e-05 3.16952e-05 -3.73378e-05 5.13292e-05
