ITEM: TIMESTEP
0
ITEM: NUMBER OF ATOMS
154
ITEM: BOX BOUNDS pp pp pp
0.0000000000000000e+00 1.1396901000000000e+01
0.0000000000000000e+00 1.2680864000000000e+01
0.0000000000000000e+00 1.2228524999999999e+01
ITEM: ATOMS id type x y z fx fy fz v_fmag
1 1 1.05823 0.545608 1.86437 2.37705e-05 2.55126e-05 -1.52549e-05 3.80611e-05
2 1 5.49377 4.45599 10.5383 2.41414e-05 -7.04154e-06 1.51242e-05 2.93451e-05
3 1 7.58508 5.57013 2.33919 5.34511e-05 3.65309e-06 -1.4783e-05 5.55779e-05
4 1 6.50636 4.36549 4.35801 2.96154e-06 2.63392e-05 2.66449e-05 3.75829e-05
5 1 7.81036 5.58014 6.12983 -4.08053e-05 7.84031e-06 -2.50956e-05 4.8542e-05
6 1 6.77271 4.48967 8.33176 -2.65712e-05 -5.53626e-05 5.74256e-06 6.16767e-05
7 1 9.90338 6.93045 10.1995 -1.44635e-05 1.40324e-05 -1.77568e-05 2.6859e-05
8 1 7.2597 8.2257 11.3583 -1.40527e-05 -2.82166e-05 8.84804e-05 9.39278e-05
9 1 6.27542 4.2903 0.599691 3.31321e-07 5.30666e-05 -2.62064e-05 5.91857e-05
10 1 7.59485 8.07937 2.36358 4.29053e-06 -4.66976e-05 3.41852e-05 5.80319e-05
11 1 6.50822 6.81017 4.32546 -3.79899e-05 1.11992e-05 -1.27269e-05 4.16009e-05
12 1 7.91284 8.01256 5.96523 -2.30917e-05 -1.90168e-05 4.5083e-05 5.41049e-05
13 1 6.6937 6.90187 8.1895 2.04111e-05 9.97338e-06 -1.22138e-05 2.57927e-05
14 1 8.1179 8.45986 9.32119 2.79368e-06 3.0352e-05 -0.000155198 0.000158163
15 1 6.22954 9.49021 0.88184 -3.44074e-05 -3.10384e-05 -1.96224e-05 5.03219e-05
16 1 7.63319 10.6734 2.5315 5.02597e-05 -3.87441e-05 3.71925e-05 7.35556e-05
17 1 9.87309 4.39358 10.165 -3.2254e-06 -1.90008e-05 1.87318e-05 2.68759e-05
18 1 6.5247 9.32835 4.36538 2.70549e-06 5.98179e-06 -3.84425e-05 3.89991e-05
19 1 6.91406 2.09913 8.0485 -7.30496e-05 -6.96743e-05 6.64074e-05 0.000120833
20 1 6.52232 1.87822 4.37576 -4.35608e-05 -5.64424e-06 1.15928e-05 4.5429e-05
21 1 4.06654 9.35954 4.66643 -1.44952e-05 -1.09364e-05 -9.8711e-06 2.06677e-05
22 1 5.40512 10.6617 6.22905 -1.72022e-05 4.16042e-05 -3.19806e-05 5.5223e-05
23 1 4.46635 9.27769 8.35518 -4.52353e-05 3.17699e-05 -3.32362e-06 5.53769e-05
24 1 7.97113 10.753 10.8756 -1.90817e-05 -2.03211e-05 -4.16542e-06 2.81853e-05
25 1 4.08642 10.6175 0.589621 3.78127e-05 1.96253e-05 -5.63626e-05 7.06519e-05
26 1 5.1467 0.569694 2.78696 -2.43554e-05 1.4496e-05 1.85797e-05 3.38899e-05
27 1 4.07176 11.9954 4.72496 -1.89556e-07 2.3445e-05 -1.09422e-05 2.58735e-05
28 1 6.97864 11.9086 7.56977 1.7244e-05 9.72307e-06 2.92566e-05 3.53248e-05
29 1 6.25614 10.6423 9.36036 8.42412e-06 3.99074e-07 1.2495e-05 1.50748e-05
30 1 5.21137 11.8001 11.1175 -2.93763e-05 -5.20249e-05 0.000129637 0.000142742
31 1 7.63124 0.608763 2.45952 2.89142e-05 -1.8964e-05 -1.26514e-05 3.68202e-05
32 1 7.94589 0.662217 5.96841 -4.23075e-05 -1.25245e-05 8.41518e-07 4.41305e-05
33 1 8.25652 0.390021 9.29046 -0.000105907 -2.1476e-05 3.12928e-05 0.000112502
34 1 8.67557 1.92589 0.330647 1.88184e-05 -1.34705e-05 4.61321e-05 5.16116e-05
35 1 7.60251 3.12879 2.38777 6.28628e-06 -3.81105e-05 1.07624e-05 4.00969e-05
36 1 7.87677 3.14802 6.04451 1.66922e-05 -3.33295e-05 -6.203e-06 3.77884e-05
37 1 7.97398 10.6437 5.80855 -2.85038e-05 1.22985e-05 3.66403e-05 4.80232e-05
38 1 6.85527 9.35188 7.57325 5.28132e-05 -7.06394e-05 3.06971e-05 9.33888e-05
39 1 11.0824 9.40826 0.178943 2.12129e-05 5.29433e-06 4.5219e-06 2.23263e-05
40 1 11.1787 5.59921 8.19606 -1.46007e-06 1.80109e-05 -3.13455e-05 3.6181e-05
41 1 10.0591 9.48917 10.172 1.17901e-05 4.61375e-05 5.5835e-05 7.33841e-05
42 1 8.69284 6.80114 0.341243 -2.94108e-05 -5.57105e-05 1.21949e-05 6.41668e-05
43 1 10.0206 8.08758 2.12074 2.51078e-05 -3.81021e-05 1.87128e-05 4.93187e-05
44 1 8.93191 6.8116 4.06536 8.42419e-07 -3.13493e-05 1.01573e-05 3.29645e-05
45 1 10.3081 8.1025 5.7725 1.27631e-05 -1.54967e-05 5.97176e-06 2.09453e-05
46 1 9.11997 6.82901 7.80424 1.23079e-05 -3.21229e-05 -4.40649e-06 3.46812e-05
47 1 11.191 8.12194 8.20034 -1.95431e-05 1.9758e-05 -2.9592e-06 2.79476e-05
48 1 8.72174 9.45076 0.542685 4.15432e-05 -1.62919e-05 -1.30805e-05 4.65012e-05
49 1 10.0713 10.6919 2.18021 2.58034e-05 6.66808e-07 -4.29305e-06 2.61666e-05
50 1 8.99828 9.32212 4.04013 -2.87002e-05 -4.16621e-06 2.61893e-05 3.90761e-05
51 1 10.3975 10.6758 5.65491 -6.1691e-06 2.30901e-06 -2.02727e-05 2.1316e-05
52 1 9.29532 9.47884 7.55365 -3.26681e-05 -1.14858e-05 7.14787e-06 3.53584e-05
53 1 8.72475 12.0007 0.559965 7.15759e-05 -3.38949e-06 6.62429e-06 7.19616e-05
54 1 9.00969 12.0166 4.06189 -1.45342e-07 -4.83597e-05 -4.22064e-06 4.85437e-05
55 1 9.10184 4.30141 7.86699 -3.35664e-05 -2.69169e-05 -2.43002e-05 4.94138e-05
56 1 10.2297 5.59537 5.85297 -8.45004e-06 -1.98094e-05 5.43282e-05 5.84411e-05
57 1 8.92459 4.36504 4.10433 -6.0365e-05 -3.27696e-05 4.28111e-05 8.09356e-05
58 1 9.97221 5.57548 2.091 -2.85129e-05 3.2231e-05 -2.00071e-05 4.74563e-05
59 1 6.25091 11.9332 0.99881 -4.35956e-05 3.20917e-05 -5.66983e-05 7.83911e-05
60 1 6.52879 12.0165 4.40965 -8.09051e-06 -1.93974e-06 -3.66255e-05 3.75586e-05
61 1 9.36662 11.904 7.53926 2.65338e-05 -1.304e-05 3.21405e-05 4.36703e-05
62 1 10.1109 11.9483 10.1814 -3.87917e-05 6.86186e-06 8.34385e-06 4.02678e-05
63 1 7.21599 0.503117 11.3481 -3.5176e-05 -4.66757e-05 -4.24011e-05 7.22069e-05
64 1 10.3695 0.568264 5.73533 1.21897e-05 -9.66945e-06 -2.65113e-05 3.07398e-05
65 1 9.95882 1.87528 10.1741 1.07955e-05 -2.08182e-05 -5.9857e-06 2.42027e-05
66 1 5.13827 10.6782 2.84735 2.55515e-05 2.26831e-05 1.86154e-05 3.89094e-05
67 1 11.0121 4.33184 0.139055 1.68874e-05 5.01574e-05 -6.56663e-08 5.29241e-05
68 1 9.98459 3.11326 2.09062 -1.69879e-05 -5.09191e-05 6.99256e-06 5.41317e-05
69 1 8.97546 1.88662 4.0821 -2.77267e-05 -1.35882e-06 -2.27023e-05 3.5861e-05
70 1 10.2969 3.10271 5.80968 -1.75862e-05 6.20456e-06 1.55567e-05 2.42855e-05
71 1 9.27878 1.83318 7.67191 6.74118e-06 3.44135e-05 -2.95272e-05 4.58431e-05
72 1 11.2399 3.10779 8.19963 7.41989e-06 1.55898e-05 1.62916e-06 1.73422e-05
73 1 11.0641 6.86983 0.155481 1.59168e-05 2.80467e-05 1.39519e-05 3.51372e-05
74 1 8.60654 4.36412 0.165764 4.50735e-05 -1.91977e-05 -3.58417e-05 6.07025e-05
75 1 10.047 0.611202 2.13525 -2.39874e-05 4.85829e-06 8.54818e-06 2.59243e-05
76 1 4.15565 8.06166 0.438803 3.94274e-06 1.25453e-05 2.66922e-05 2.97557e-05
77 1 5.4072 6.87428 10.5245 6.45139e-05 -2.65151e-05 -2.35483e-06 6.979e-05
78 1 4.31052 6.83106 8.32868 1.76618e-05 -1.04892e-05 3.10703e-05 3.72468e-05
79 1 3.04398 0.559643 6.67442 -4.03521e-05 -3.2962e-05 -2.99129e-05 6.00797e-05
80 1 3.37666 0.562459 10.2541 -2.55606e-05 2.29726e-05 -2.97381e-05 4.54471e-05
81 1 2.11542 1.82393 12.1671 -4.69959e-05 1.13913e-05 -3.49128e-05 5.9643e-05
82 1 3.06894 1.83566 2.36695 2.50708e-05 1.67108e-05 3.28445e-05 4.45708e-05
83 1 2.02487 0.57311 4.32171 4.76169e-06 2.91718e-05 -2.6604e-05 3.97673e-05
84 1 3.03057 3.10183 6.61982 3.87751e-06 -2.15712e-05 -5.57955e-05 5.99457e-05
85 1 1.95006 1.83327 8.59517 -2.5437e-05 8.46167e-06 -2.83072e-06 2.69565e-05
86 1 3.23763 3.13018 10.2999 -1.95397e-05 -6.37745e-06 4.59561e-06 2.10616e-05
87 1 2.05006 4.35422 12.1827 -1.64129e-05 2.06639e-05 -1.56995e-05 3.07059e-05
88 1 1.00082 3.07516 1.87405 -8.92874e-06 1.86379e-05 9.53026e-06 2.27579e-05
89 1 3.05034 4.35144 2.32139 1.24638e-05 -1.83346e-05 9.04956e-07 2.21884e-05
90 1 2.01099 3.09705 4.28865 -1.87861e-05 -2.22482e-05 -2.40783e-05 3.77844e-05
91 1 3.01703 5.60208 6.595 -3.28476e-05 3.94405e-05 1.71301e-06 5.13561e-05
92 1 1.91962 4.35768 8.55423 -1.36502e-05 1.26517e-05 4.05417e-05 4.46097e-05
93 1 3.22275 5.60334 10.272 1.26844e-05 2.98392e-05 3.32488e-05 4.64409e-05
94 1 4.16704 0.596759 0.47946 7.17938e-05 5.05021e-07 -1.14236e-05 7.26987e-05
95 1 0.828155 10.6773 10.4946 -1.33932e-05 -1.26372e-07 2.5658e-05 2.89435e-05
96 1 1.95141 11.9719 8.59675 1.34708e-05 -6.77294e-06 -4.13136e-05 4.3979e-05
97 1 0.978904 11.9599 6.26136 -2.01372e-06 2.05861e-05 1.19403e-05 2.38834e-05
98 1 11.2633 0.561366 8.22023 -1.00747e-06 1.47192e-05 -5.89571e-06 1.5888e-05
99 1 0.819686 0.563002 10.4851 -1.95183e-07 8.41521e-05 3.10319e-05 8.96916e-05
100 1 11.0706 1.79015 0.151468 2.59751e-05 2.23729e-05 -2.78447e-06 3.43949e-05
101 1 11.3834 1.83762 3.82896 -5.00541e-05 -5.2326e-06 2.02597e-06 5.03677e-05
102 1 0.965397 1.83398 6.26551 -1.90884e-05 -7.02972e-06 -1.39247e-05 2.46512e-05
103 1 0.731747 3.09885 10.4702 1.51495e-05 -1.16402e-05 -4.95741e-05 5.3128e-05
104 1 11.3279 4.34259 3.84877 4.63336e-05 1.75998e-05 -7.82632e-06 5.01777e-05
105 1 2.07894 6.84884 12.1786 3.79026e-05 5.93565e-06 -1.80471e-05 4.23974e-05
106 1 0.933777 4.35478 6.23427 -1.67085e-05 -4.17228e-06 -3.85697e-05 4.22398e-05
107 1 11.3366 6.84432 3.84567 -5.93752e-05 7.16832e-06 1.38827e-05 6.13965e-05
108 1 0.925755 6.84458 6.23871 2.81326e-05 2.1423e-05 1.05521e-05 3.69017e-05
109 1 0.73908 8.13559 10.4665 6.67433e-06 1.51303e-05 4.25252e-05 4.56275e-05
110 1 0.0154767 9.38075 3.80133 -4.40687e-06 1.89163e-05 2.87958e-05 3.4734e-05
111 1 0.941458 9.3695 6.24594 -1.11715e-05 -4.27538e-05 4.08798e-05 6.01984e-05
112 1 2.1183 9.37306 12.1719 1.15501e-05 3.64896e-05 -2.24031e-05 4.43485e-05
113 1 0.0350529 11.976 3.796 -5.26018e-05 1.81529e-05 9.41313e-06 5.64365e-05
114 1 0.707317 5.61274 10.4571 2.23478e-05 3.1288e-05 -3.16066e-06 3.85792e-05
115 1 11.3169 10.6649 8.19933 -6.72512e-07 -4.70372e-07 1.8308e-05 1.83263e-05
116 1 0.979973 5.59579 1.88703 -3.9111e-05 -6.40854e-06 -1.02089e-05 4.09263e-05
117 1 1.99384 5.59272 4.26927 -1.93545e-05 -1.64234e-05 3.94317e-05 4.68955e-05
118 1 4.09826 1.84558 4.69777 -6.66735e-06 2.55981e-05 3.86201e-06 2.67326e-05
119 1 5.46883 3.16055 6.37421 -2.48287e-05 3.0066e-05 -1.88773e-05 4.33218e-05
120 1 4.38401 1.94129 8.34224 2.02383e-05 -5.24057e-05 1.67511e-05 5.8622e-05
121 1 7.67428 3.00487 10.3432 -1.01466e-05 1.78047e-07 -1.95733e-05 2.20476e-05
122 1 4.12722 3.12431 0.432998 -9.25538e-06 -2.97033e-05 -3.29381e-06 3.12857e-05
123 1 5.15805 5.57693 2.62131 -7.25962e-06 2.88918e-05 2.64586e-05 3.98434e-05
124 1 4.09386 4.34969 4.64245 1.18768e-05 -1.16348e-05 -2.53265e-05 3.02962e-05
125 1 5.43852 5.59576 6.38605 -9.85376e-06 -2.28525e-05 -5.08985e-06 2.54016e-05
126 1 4.36329 4.3764 8.35062 1.7726e-05 4.53509e-06 4.53707e-06 1.88511e-05
127 1 7.69141 5.76616 10.376 3.67982e-05 -2.4297e-05 -4.43179e-05 6.25182e-05
128 1 6.23264 6.78611 0.705577 1.11945e-05 3.60374e-06 2.22371e-05 2.51554e-05
129 1 4.16975 5.57749 0.303341 -2.3913e-05 3.77311e-05 -2.87081e-05 5.31001e-05
130 1 5.16203 8.10911 2.69401 7.95566e-05 -1.12916e-05 1.10949e-05 8.11163e-05
131 1 4.08296 6.82668 4.61006 -6.15932e-06 1.26706e-05 -9.67871e-06 1.70926e-05
132 1 5.41111 8.03108 6.27048 4.30376e-06 2.95264e-05 -3.32586e-05 4.46818e-05
133 1 5.15458 3.10295 2.70326 2.17383e-05 1.31101e-05 -3.82374e-05 4.58969e-05
134 1 5.36311 2.07955 10.8435 2.74015e-05 -1.28457e-05 -8.82669e-05 9.33107e-05
135 1 5.88988 0.419689 9.31317 6.8163e-05 8.25227e-05 -3.95441e-05 0.000114105
136 1 5.46845 0.655733 6.40274 2.69433e-05 -1.18489e-05 -1.1803e-05 3.1712e-05
137 1 3.01624 8.10767 6.62073 -3.69959e-05 1.48016e-05 2.92175e-05 4.9411e-05
138 1 1.88164 6.85843 8.55105 1.18279e-05 -2.47818e-05 5.96223e-06 2.80996e-05
139 1 3.19789 8.08231 10.2781 4.81465e-06 -2.93664e-05 -1.48136e-05 3.32417e-05
140 1 1.02663 8.11886 1.87805 1.16659e-05 1.17505e-05 2.63148e-05 3.10908e-05
141 1 3.06287 9.35644 2.39412 -9.64462e-06 -3.08427e-05 5.52509e-06 3.27844e-05
142 1 2.00369 8.09569 4.29666 2.50543e-05 1.79095e-05 4.23287e-05 5.23468e-05
143 1 2.9996 10.6157 6.61959 9.13804e-05 -1.01939e-05 4.62866e-05 0.00010294
144 1 3.064 6.83399 2.31349 3.17435e-05 1.19163e-05 2.40915e-05 4.15938e-05
145 1 1.96762 9.38037 8.5629 7.42272e-06 9.43098e-06 -1.09704e-05 1.62601e-05
146 1 1.08141 10.6736 1.85982 -1.24091e-05 2.15297e-05 -4.62803e-05 5.25298e-05
147 1 3.08074 11.9713 2.39932 2.59115e-05 2.21447e-05 -1.10816e-06 3.41031e-05
148 1 2.025 10.674 4.30427 -2.35702e-05 6.76311e-06 8.97306e-08 2.45215e-05
149 1 4.33915 11.7921 8.22327 -3.19008e-05 -3.08224e-05 -7.61501e-05 8.81278e-05
150 1 3.2688 10.656 10.2484 1.56696e-05 3.19157e-05 2.27065e-05 4.21869e-05
151 1 2.16536 11.9638 12.1596 5.14579e-05 -2.15164e-05 -4.90084e-06 5.59901e-05
152 1 6.23417 1.83264 0.871024 -1.65993e-05 -3.01281e-05 -9.59481e-06 3.57114e-05
153 1 5.18143 9.29991 10.8943 5.9837e-05 2.82455e-05 9.2263e-06 6.68087e-05
154 1 11.1049 11.938 0.184873 1.6463e-05 5.74883e-05 3.2829e-05 6.82179e-05
