LAMMPS data file via write_data, version 22 Jul 2025, timestep = 5, units = metal

96 atoms
3 atom types

0 10.224764 xlo xhi
0 8.854905 ylo yhi
0 12.522727 zlo zhi
5.112382 0 0 xy xz yz

Masses

1 63.55
2 63.55
3 63.55

Atoms # atomic

1 3 1.278096 0.7379089999999998 0.04217204105391205 0 0 0
5 3 2.556191 2.951635 0.04217198416408213 0 0 0
18 3 2.556191 1.4758179999999996 2.0871212093272735 0 0 0
33 3 0 0 4.1320704951112095 0 0 0
34 3 2.556191 0 4.1320704951112095 0 0 0
37 3 1.278096 2.213726 4.1320704372203245 0 0 0
2 3 3.834287 0.7379089999999998 0.04217204105391213 0 0 0
3 3 6.390478 0.7379089999999998 0.04217204105391257 0 0 0
6 3 5.112382 2.951635 0.04217198416408124 0 0 0
7 3 7.668573 2.951635 0.04217198416408184 0 0 0
19 3 5.112382 1.4758179999999996 2.0871212093272735 0 0 0
20 3 7.668573 1.4758179999999996 2.0871212093272744 0 0 0
22 3 3.834287 3.6895439999999997 2.0871213261567663 0 0 0
23 3 6.390478 3.6895439999999997 2.0871213261567667 0 0 0
35 3 5.112382 0 4.1320704951112095 0 0 0
36 3 7.668573 0 4.1320704951112095 0 0 0
38 3 3.834287 2.213726 4.1320704372203245 0 0 0
39 3 6.390478 2.213726 4.1320704372203245 0 0 0
4 3 8.946668999999996 0.7379089999999998 0.04217204105391284 0 0 0
8 3 10.224764000000004 2.951635 0.04217198416408081 0 0 0
17 3 10.224764 1.4758179999999996 2.087121209327273 0 0 0
24 3 8.946669 3.6895439999999997 2.0871213261567663 0 0 0
40 3 8.946669 2.213726 4.1320704372203245 0 0 0
21 3 11.502859999999998 3.6895439999999997 2.087121326156767 0 0 0
9 3 3.834287 5.165361 0.042172096392360484 0 0 0
10 3 6.390478 5.165361 0.04217209639236064 0 0 0
13 3 5.112382 7.379087999999999 0.04217208324929403 0 0 0
14 3 7.668573 7.379087999999999 0.04217208324929365 0 0 0
26 3 5.112382 5.90327 2.0871210836602097 0 0 0
27 3 7.668573 5.90327 2.0871210836602097 0 0 0
30 3 6.390478 8.116997 2.0871212548928146 0 0 0
42 3 5.112382 4.427453 4.132070382112385 0 0 0
43 3 7.668573 4.427453 4.132070382112385 0 0 0
45 3 3.834287 6.641179 4.132070353902804 0 0 0
46 3 6.390478 6.641179 4.132070353902804 0 0 0
11 3 8.946669 5.165361 0.042172096392359776 0 0 0
15 3 10.224764 7.379087999999999 0.0421720832492933 0 0 0
28 3 10.224764 5.90327 2.0871210836602097 0 0 0
31 3 8.946669 8.116997 2.087121254892814 0 0 0
44 3 10.224764 4.427453 4.132070382112385 0 0 0
47 3 8.946669 6.641179 4.132070353902804 0 0 0
12 3 11.502859999999998 5.165361 0.04217209639236 0 0 0
16 3 12.780955 7.379087999999999 0.042172083249293286 0 0 0
25 3 12.780955 5.90327 2.0871210836602097 0 0 0
29 3 14.059050999999998 8.116997 2.0871212548928146 0 0 0
32 3 11.502859999999998 8.116997 2.087121254892814 0 0 0
41 3 12.780955000000002 4.427453 4.132070382112385 -1 0 0
48 3 11.502859999999998 6.641179 4.132070353902804 0 0 0
49 3 1.981048 0.7379089999999998 6.303535571968856 0 0 0
53 3 3.259144 2.951635 6.303535515079093 0 0 0
50 3 4.537239 0.7379089999999998 6.303535571968856 0 0 0
51 3 7.093429999999998 0.7379089999999998 6.303535571968856 0 0 0
54 3 5.815335 2.951635 6.303535515079093 0 0 0
52 3 9.649620999999998 0.7379089999999998 6.303535571968856 0 0 0
55 3 8.371526 2.951635 6.303535515079095 0 0 0
56 3 10.927717000000001 2.951635 6.303535515079093 0 0 0
57 3 4.537239 5.165361 6.303535627307288 0 0 0
58 3 7.09343 5.165361 6.303535627307288 0 0 0
61 3 5.815335 7.379087999999999 6.303535614164252 0 0 0
59 3 9.649621 5.165361 6.303535627307288 0 0 0
62 3 8.371526 7.379087999999999 6.303535614164252 0 0 0
63 3 10.927717 7.379087999999999 6.303535614164252 0 0 0
60 3 12.205812 5.165361 6.303535627307286 0 0 0
64 3 13.483908 7.379087999999999 6.303535614164252 0 0 0
66 3 3.259144 1.4758179999999996 8.34848477387562 0 0 0
81 3 0.702953 0 10.393434026026181 0 0 0
82 3 3.259144 0 10.393434026026181 0 0 0
85 3 1.981048 2.213726 10.393433968135255 0 0 0
67 3 5.815335 1.4758179999999996 8.34848477387562 0 0 0
70 3 4.537239 3.6895439999999997 8.348484890705153 0 0 0
71 3 7.093429999999998 3.6895439999999997 8.348484890705153 0 0 0
83 3 5.815335 0 10.393434026026181 0 0 0
86 3 4.537239 2.213726 10.393433968135254 0 0 0
87 3 7.09343 2.213726 10.393433968135255 0 0 0
65 3 10.927717000000001 1.4758179999999996 8.34848477387562 0 0 0
68 3 8.371526 1.4758179999999996 8.34848477387562 0 0 0
72 3 9.649621 3.6895439999999997 8.348484890705153 0 0 0
84 3 8.371526 0 10.39343402602618 0 0 0
88 3 9.649620999999998 2.213726 10.393433968135254 0 0 0
69 3 12.205812 3.6895439999999997 8.348484890705153 0 0 0
89 3 3.259144 4.427453 10.393433913027353 0 0 0
74 3 5.815335 5.90327 8.348484648208556 0 0 0
78 3 7.09343 8.116997 8.348484819441165 0 0 0
90 3 5.815335 4.427453 10.393433913027353 0 0 0
93 3 4.537239 6.641179 10.393433884817794 0 0 0
94 3 7.09343 6.641179 10.393433884817794 0 0 0
75 3 8.371526 5.90327 8.348484648208556 0 0 0
76 3 10.927717000000001 5.90327 8.348484648208554 0 0 0
79 3 9.649621 8.116997 8.348484819441165 0 0 0
91 3 8.371526 4.427453 10.393433913027351 0 0 0
92 3 10.927717000000001 4.427453 10.393433913027351 0 0 0
95 3 9.649621 6.641179 10.393433884817794 0 0 0
73 3 13.483908 5.90327 8.348484648208556 0 0 0
77 3 14.762003 8.116997 8.348484819441165 0 0 0
80 3 12.205811999999998 8.116997 8.348484819441165 0 0 0
96 3 12.205811999999998 6.641179 10.393433884817794 0 0 0

Velocities

1 0 0 0
5 0 0 0
18 0 0 0
33 0 0 0
34 0 0 0
37 0 0 0
2 0 0 0
3 0 0 0
6 0 0 0
7 0 0 0
19 0 0 0
20 0 0 0
22 0 0 0
23 0 0 0
35 0 0 0
36 0 0 0
38 0 0 0
39 0 0 0
4 0 0 0
8 0 0 0
17 0 0 0
24 0 0 0
40 0 0 0
21 0 0 0
9 0 0 0
10 0 0 0
13 0 0 0
14 0 0 0
26 0 0 0
27 0 0 0
30 0 0 0
42 0 0 0
43 0 0 0
45 0 0 0
46 0 0 0
11 0 0 0
15 0 0 0
28 0 0 0
31 0 0 0
44 0 0 0
47 0 0 0
12 0 0 0
16 0 0 0
25 0 0 0
29 0 0 0
32 0 0 0
41 0 0 0
48 0 0 0
49 0 0 0
53 0 0 0
50 0 0 0
51 0 0 0
54 0 0 0
52 0 0 0
55 0 0 0
56 0 0 0
57 0 0 0
58 0 0 0
61 0 0 0
59 0 0 0
62 0 0 0
63 0 0 0
60 0 0 0
64 0 0 0
66 0 0 0
81 0 0 0
82 0 0 0
85 0 0 0
67 0 0 0
70 0 0 0
71 0 0 0
83 0 0 0
86 0 0 0
87 0 0 0
65 0 0 0
68 0 0 0
72 0 0 0
84 0 0 0
88 0 0 0
69 0 0 0
89 0 0 0
74 0 0 0
78 0 0 0
90 0 0 0
93 0 0 0
94 0 0 0
75 0 0 0
76 0 0 0
79 0 0 0
91 0 0 0
92 0 0 0
95 0 0 0
73 0 0 0
77 0 0 0
80 0 0 0
96 0 0 0
