LAMMPS data file via write_data, version 22 Jul 2025, timestep = 3, units = metal

96 atoms
3 atom types

0 10.224764 xlo xhi
0 8.854905 ylo yhi
0 12.522727 zlo zhi
5.112382 0 0 xy xz yz

Masses

1 63.55
2 63.55
3 63.55

Atoms # atomic

1 3 1.278096 0.7379089999999998 0.002053187320339137 0 0 0
5 3 2.556191 2.951635 0.0020529553132748145 0 0 0
18 3 2.556191 1.4758179999999996 2.087121131406241 0 0 0
33 3 0 0 4.1721894069345185 0 0 0
34 3 2.556191 0 4.172189394464047 0 0 0
37 3 1.278096 2.213726 4.17218921227945 0 0 0
2 3 3.834287 0.7379089999999998 0.002053081625527819 0 0 0
3 3 6.390478 0.7379089999999998 0.002053087187782026 0 0 0
6 3 5.112382 2.951635 0.0020529273712685974 0 0 0
7 3 7.668573 2.951635 0.002052919222982445 0 0 0
19 3 5.112382 1.4758179999999996 2.087121127019446 0 0 0
20 3 7.668573 1.4758179999999996 2.087121129001785 0 0 0
22 3 3.834287 3.6895439999999997 2.087121261400098 0 0 0
23 3 6.390478 3.6895439999999997 2.087121247414949 0 0 0
35 3 5.112382 0 4.17218939004139 0 0 0
36 3 7.668573 0 4.172189425423588 0 0 0
38 3 3.834287 2.213726 4.172189316011101 0 0 0
39 3 6.390478 2.213726 4.172189313112792 0 0 0
4 3 8.946668999999996 0.7379089999999998 0.0020529288051944054 0 0 0
8 3 10.224764000000004 2.951635 0.002052970076817945 0 0 0
17 3 10.224764 1.4758179999999996 2.087121133388592 0 0 0
24 3 8.946669 3.6895439999999997 2.0871212506302146 0 0 0
40 3 8.946669 2.213726 4.172189473458151 0 0 0
21 3 11.502859999999998 3.6895439999999997 2.0871212320668966 0 0 0
9 3 3.834287 5.165361 0.002053174275338863 0 0 0
10 3 6.390478 5.165361 0.002053070798468373 0 0 0
13 3 5.112382 7.379087999999999 0.002053170627862577 0 0 0
14 3 7.668573 7.379087999999999 0.0020531153751638647 0 0 0
26 3 5.112382 5.90327 2.087121041595502 0 0 0
27 3 7.668573 5.90327 2.0871210384108143 0 0 0
30 3 6.390478 8.116997 2.0871212087922886 0 0 0
42 3 5.112382 4.427453 4.172189363133529 0 0 0
43 3 7.668573 4.427453 4.172189388586792 0 0 0
45 3 3.834287 6.641179 4.172189229046634 0 0 0
46 3 6.390478 6.641179 4.172189330209789 0 0 0
11 3 8.946669 5.165361 0.0020529176767760254 0 0 0
15 3 10.224764 7.379087999999999 0.0020531338267820404 0 0 0
28 3 10.224764 5.90327 2.0871210372085627 0 0 0
31 3 8.946669 8.116997 2.0871212101551393 0 0 0
44 3 10.224764 4.427453 4.172189367569878 0 0 0
47 3 8.946669 6.641179 4.1721894836816364 0 0 0
12 3 11.502859999999998 5.165361 0.0020530174797007807 0 0 0
16 3 12.780955 7.379087999999999 0.0020531754233295597 0 0 0
25 3 12.780955 5.90327 2.0871210403932383 0 0 0
29 3 14.059050999999998 8.116997 2.087121168689385 0 0 0
32 3 11.502859999999998 8.116997 2.087121202600865 0 0 0
41 3 12.780955000000002 4.427453 4.172189355772692 -1 0 0
48 3 11.502859999999998 6.641179 4.172189386192424 0 0 0
49 3 3.7064769999999996 0.7379089999999998 6.263416594536279 0 0 0
52 3 1.150286 0.7379089999999998 6.26341646693765 0 0 0
56 3 2.428381 2.951635 6.263416563167868 0 0 0
50 3 6.262668000000001 0.7379089999999998 6.263416606242565 0 0 0
53 3 4.984571999999999 2.951635 6.263416557421514 0 0 0
54 3 7.540763 2.951635 6.263416577713364 0 0 0
51 3 8.818858999999998 0.7379089999999998 6.263416779748949 0 0 0
55 3 10.096955000000001 2.951635 6.263416556311848 0 0 0
60 3 3.706477 5.165361 6.263416453914512 0 0 0
57 3 6.262668 5.165361 6.2634165991907 0 0 0
61 3 7.540763 7.379087999999999 6.2634167565051895 0 0 0
64 3 4.984572 7.379087999999999 6.263416787314816 0 0 0
58 3 8.818859 5.165361 6.263416733744055 0 0 0
59 3 11.37505 5.165361 6.2634166208317446 0 0 0
62 3 10.096955000000001 7.379087999999999 6.2634167395639215 0 0 0
63 3 12.653145999999998 7.379087999999999 6.263416771389868 0 0 0
65 3 2.428381 1.4758179999999996 8.348484822092539 0 0 0
69 3 3.7064769999999996 3.6895439999999997 8.348484810860242 0 0 0
81 3 2.428381 0 10.43355291999904 0 0 0
85 3 3.706477 2.213726 10.433552940263604 0 0 0
66 3 4.984571999999999 1.4758179999999996 8.348484822164894 0 0 0
67 3 7.540763 1.4758179999999996 8.348484823158866 0 0 0
70 3 6.262668 3.6895439999999997 8.34848494111083 0 0 0
82 3 4.984572 0 10.433552925702406 0 0 0
83 3 7.540763 0 10.43355296657594 0 0 0
86 3 6.262668 2.213726 10.433552954600977 0 0 0
68 3 10.096955 1.4758179999999996 8.348484823086494 0 0 0
71 3 8.818859 3.6895439999999997 8.348484941077704 0 0 0
72 3 11.37505 3.6895439999999997 8.34848508382696 0 0 0
84 3 10.096955 0 10.4335529880203 0 0 0
87 3 8.818859 2.213726 10.433552818382942 0 0 0
88 3 11.37505 2.213726 10.433553105150825 0 0 0
73 3 4.984572 5.90327 8.348484731787455 0 0 0
74 3 7.540763 5.90327 8.348484731326584 0 0 0
77 3 6.262668 8.116997 8.348484758952454 0 0 0
89 3 4.984572 4.427453 10.433552896801537 0 0 0
90 3 7.540763000000001 4.427453 10.43355289700687 0 0 0
93 3 6.262668 6.641179 10.433552956643735 0 0 0
75 3 10.096955 5.90327 8.348484731859878 0 0 0
78 3 8.818859 8.116997 8.348484746487015 0 0 0
79 3 11.37505 8.116997 8.348484876670879 0 0 0
91 3 10.096955 4.427453 10.433552944509502 0 0 0
94 3 8.818859 6.641179 10.433552816467916 0 0 0
95 3 11.37505 6.641179 10.43355296104641 0 0 0
76 3 12.653145999999998 5.90327 8.34848473232075 0 0 0
80 3 13.931241 8.116997 8.348485162136702 0 0 0
92 3 12.653146 4.427453 10.433552943287772 0 0 0
96 3 13.931241 6.641179 10.433553133586086 0 0 0

Velocities

1 0 0 0
5 0 0 0
18 0 0 0
33 0 0 0
34 0 0 0
37 0 0 0
2 0 0 0
3 0 0 0
6 0 0 0
7 0 0 0
19 0 0 0
20 0 0 0
22 0 0 0
23 0 0 0
35 0 0 0
36 0 0 0
38 0 0 0
39 0 0 0
4 0 0 0
8 0 0 0
17 0 0 0
24 0 0 0
40 0 0 0
21 0 0 0
9 0 0 0
10 0 0 0
13 0 0 0
14 0 0 0
26 0 0 0
27 0 0 0
30 0 0 0
42 0 0 0
43 0 0 0
45 0 0 0
46 0 0 0
11 0 0 0
15 0 0 0
28 0 0 0
31 0 0 0
44 0 0 0
47 0 0 0
12 0 0 0
16 0 0 0
25 0 0 0
29 0 0 0
32 0 0 0
41 0 0 0
48 0 0 0
49 0 0 0
52 0 0 0
56 0 0 0
50 0 0 0
53 0 0 0
54 0 0 0
51 0 0 0
55 0 0 0
60 0 0 0
57 0 0 0
61 0 0 0
64 0 0 0
58 0 0 0
59 0 0 0
62 0 0 0
63 0 0 0
65 0 0 0
69 0 0 0
81 0 0 0
85 0 0 0
66 0 0 0
67 0 0 0
70 0 0 0
82 0 0 0
83 0 0 0
86 0 0 0
68 0 0 0
71 0 0 0
72 0 0 0
84 0 0 0
87 0 0 0
88 0 0 0
73 0 0 0
74 0 0 0
77 0 0 0
89 0 0 0
90 0 0 0
93 0 0 0
75 0 0 0
78 0 0 0
79 0 0 0
91 0 0 0
94 0 0 0
95 0 0 0
76 0 0 0
80 0 0 0
92 0 0 0
96 0 0 0
