LAMMPS data file via write_data, version 22 Jul 2025, timestep = 9, units = metal

96 atoms
3 atom types

0 10.224764 xlo xhi
0 8.854905 ylo yhi
0 12.522727 zlo zhi
5.112382 0 0 xy xz yz

Masses

1 63.55
2 63.55
3 63.55

Atoms # atomic

1 3 1.278096 0.7379089999999998 0.0970266889892232 0 0 0
5 3 2.556191 2.951635 0.09702677761025122 0 0 0
18 3 2.556191 1.4758179999999996 2.1289345180719366 0 0 0
33 3 0 0 4.163836307903052 0 0 0
34 3 2.556191 0 4.163836307903053 0 0 0
37 3 1.278096 2.213726 4.163836445759332 0 0 0
2 3 3.834287 0.7379089999999998 0.09702668898922322 0 0 0
3 3 6.390478 0.7379089999999998 0.09702668898922401 0 0 0
6 3 5.112382 2.951635 0.09702677761025084 0 0 0
7 3 7.668573 2.951635 0.09702677761025066 0 0 0
19 3 5.112382 1.4758179999999996 2.128934518071936 0 0 0
20 3 7.668573 1.4758179999999996 2.1289345180719366 0 0 0
22 3 3.834287 3.6895439999999997 2.1289346386242967 0 0 0
23 3 6.390478 3.6895439999999997 2.1289346386242967 0 0 0
35 3 5.112382 0 4.163836307903053 0 0 0
36 3 7.668573 0 4.163836307903052 0 0 0
38 3 3.834287 2.213726 4.163836445759332 0 0 0
39 3 6.390478 2.213726 4.163836445759332 0 0 0
4 3 8.946668999999996 0.7379089999999998 0.09702668898922331 0 0 0
8 3 10.224764000000004 2.951635 0.09702677761025089 0 0 0
17 3 10.224764 1.4758179999999996 2.1289345180719357 0 0 0
24 3 8.946669 3.6895439999999997 2.128934638624296 0 0 0
40 3 8.946669 2.213726 4.163836445759332 0 0 0
21 3 11.502859999999998 3.6895439999999997 2.1289346386242975 0 0 0
9 3 3.834287 5.165361 0.09702637136874784 0 0 0
10 3 6.390478 5.165361 0.09702637136874888 0 0 0
13 3 5.112382 7.379087999999999 0.09702679394883362 0 0 0
14 3 7.668573 7.379087999999999 0.09702679394883365 0 0 0
26 3 5.112382 5.90327 2.1289342056288 0 0 0
27 3 7.668573 5.90327 2.1289342056287994 0 0 0
30 3 6.390478 8.116997 2.12893448732102 0 0 0
42 3 5.112382 4.427453 4.1638363867000425 0 0 0
43 3 7.668573 4.427453 4.1638363867000425 0 0 0
45 3 3.834287 6.641179 4.163836170220174 0 0 0
46 3 6.390478 6.641179 4.163836170220172 0 0 0
11 3 8.946669 5.165361 0.09702637136874792 0 0 0
15 3 10.224764 7.379087999999999 0.09702679394883316 0 0 0
28 3 10.224764 5.90327 2.1289342056287994 0 0 0
31 3 8.946669 8.116997 2.1289344873210196 0 0 0
44 3 10.224764 4.427453 4.163836386700043 0 0 0
47 3 8.946669 6.641179 4.163836170220173 0 0 0
12 3 11.502859999999998 5.165361 0.09702637136874938 0 0 0
16 3 12.780955 7.379087999999999 0.09702679394883296 0 0 0
25 3 12.780955 5.90327 2.1289342056287994 0 0 0
29 3 14.059050999999998 8.116997 2.1289344873210196 0 0 0
32 3 11.502859999999998 8.116997 2.1289344873210196 0 0 0
41 3 12.780955000000002 4.427453 4.163836386700042 -1 0 0
48 3 11.502859999999998 6.641179 4.163836170220172 0 0 0
49 3 3.103946 1.370402 6.271769737245292 0 0 0
50 3 5.660137 1.370402 6.271769737245294 0 0 0
53 3 4.382042 3.584128 6.27176954907139 0 0 0
54 3 6.938233 3.584128 6.27176954907139 0 0 0
51 3 8.216327999999999 1.370402 6.271769737245292 0 0 0
52 3 10.772519 1.370402 6.271769737245292 0 0 0
55 3 9.494424 3.584128 6.27176954907139 0 0 0
56 3 12.050615 3.584128 6.271769549071389 0 0 0
57 3 5.660137 5.797854999999998 6.2717696448951505 0 0 0
61 3 6.938233 8.011581 6.271769754445562 0 0 0
58 3 8.216328 5.797854999999998 6.2717696448951505 0 0 0
59 3 10.772519 5.797854999999998 6.2717696448951505 0 0 0
62 3 9.494424 8.011581 6.271769754445562 0 0 0
60 3 13.328709999999994 5.797854999999998 6.2717696448951505 0 0 0
63 3 12.050615 8.011581 6.271769754445561 0 0 0
64 3 14.606806 8.011581 6.271769754445562 0 0 0
65 3 1.8258509999999997 2.108311 8.306671733621126 0 0 0
69 3 3.1039459999999988 4.322037 8.30667124287608 0 0 0
81 3 1.8258509999999997 0.632493 10.338579460767551 0 0 0
85 3 3.103946 2.84622 10.338579450817697 0 0 0
66 3 4.382042 2.108311 8.306671733621126 0 0 0
67 3 6.938233 2.108311 8.306671733621126 0 0 0
70 3 5.660137000000001 4.322037 8.30667124287608 0 0 0
82 3 4.382042 0.632493 10.338579460767551 0 0 0
83 3 6.938232999999999 0.632493 10.338579460767553 0 0 0
86 3 5.660137000000001 2.84622 10.338579450817697 0 0 0
68 3 9.494424 2.108311 8.306671733621126 0 0 0
71 3 8.216328 4.322037 8.30667124287608 0 0 0
72 3 10.772519 4.322037 8.306671242876078 0 0 0
84 3 9.494424 0.632493 10.338579460767551 0 0 0
87 3 8.216328 2.84622 10.338579450817697 0 0 0
88 3 10.772519 2.84622 10.338579450817695 0 0 0
73 3 4.382042 6.535764 8.306671541265613 0 0 0
74 3 6.938232999999999 6.535764 8.306671541265615 0 0 0
77 3 5.660137 8.74949 8.306671629765843 0 0 0
89 3 4.382042 5.059946 10.338578970965935 0 0 0
90 3 6.938233 5.059946 10.338578970965937 0 0 0
93 3 5.660137000000001 7.273672 10.338579492117047 0 0 0
75 3 9.494424 6.535764 8.306671541265615 0 0 0
78 3 8.216328 8.74949 8.306671629765843 0 0 0
79 3 10.772519 8.74949 8.306671629765843 0 0 0
91 3 9.494423999999999 5.059946 10.338578970965937 0 0 0
94 3 8.216328 7.273672 10.338579492117047 0 0 0
95 3 10.772519000000003 7.273672 10.338579492117047 0 0 0
76 3 12.050614999999997 6.535764 8.306671541265615 0 0 0
80 3 13.32871 8.74949 8.306671629765843 0 0 0
92 3 12.050614999999997 5.059946 10.338578970965937 0 0 0
96 3 13.328710000000003 7.273672 10.338579492117047 0 0 0

Velocities

1 0 0 0
5 0 0 0
18 0 0 0
33 0 0 0
34 0 0 0
37 0 0 0
2 0 0 0
3 0 0 0
6 0 0 0
7 0 0 0
19 0 0 0
20 0 0 0
22 0 0 0
23 0 0 0
35 0 0 0
36 0 0 0
38 0 0 0
39 0 0 0
4 0 0 0
8 0 0 0
17 0 0 0
24 0 0 0
40 0 0 0
21 0 0 0
9 0 0 0
10 0 0 0
13 0 0 0
14 0 0 0
26 0 0 0
27 0 0 0
30 0 0 0
42 0 0 0
43 0 0 0
45 0 0 0
46 0 0 0
11 0 0 0
15 0 0 0
28 0 0 0
31 0 0 0
44 0 0 0
47 0 0 0
12 0 0 0
16 0 0 0
25 0 0 0
29 0 0 0
32 0 0 0
41 0 0 0
48 0 0 0
49 0 0 0
50 0 0 0
53 0 0 0
54 0 0 0
51 0 0 0
52 0 0 0
55 0 0 0
56 0 0 0
57 0 0 0
61 0 0 0
58 0 0 0
59 0 0 0
62 0 0 0
60 0 0 0
63 0 0 0
64 0 0 0
65 0 0 0
69 0 0 0
81 0 0 0
85 0 0 0
66 0 0 0
67 0 0 0
70 0 0 0
82 0 0 0
83 0 0 0
86 0 0 0
68 0 0 0
71 0 0 0
72 0 0 0
84 0 0 0
87 0 0 0
88 0 0 0
73 0 0 0
74 0 0 0
77 0 0 0
89 0 0 0
90 0 0 0
93 0 0 0
75 0 0 0
78 0 0 0
79 0 0 0
91 0 0 0
94 0 0 0
95 0 0 0
76 0 0 0
80 0 0 0
92 0 0 0
96 0 0 0
