LAMMPS data file via write_data, version 22 Jul 2025, timestep = 9, units = metal

96 atoms
3 atom types

0 10.224764 xlo xhi
0 8.854905 ylo yhi
0 12.522727 zlo zhi
5.112382 0 0 xy xz yz

Masses

1 63.55
2 63.55
3 63.55

Atoms # atomic

1 3 1.278096 0.7379089999999998 0.09702660491427369 0 0 0
5 3 2.556191 2.951635 0.09702666515196201 0 0 0
18 3 2.556191 1.4758179999999996 2.1289344305061353 0 0 0
33 3 0 0 4.163836187877451 0 0 0
34 3 2.556191 0 4.163836304680688 0 0 0
37 3 1.278096 2.213726 4.163836321968468 0 0 0
2 3 3.834287 0.7379089999999998 0.09702658934565087 0 0 0
3 3 6.390478 0.7379089999999998 0.09702658297172204 0 0 0
6 3 5.112382 2.951635 0.09702665238144681 0 0 0
7 3 7.668573 2.951635 0.09702667031132946 0 0 0
19 3 5.112382 1.4758179999999996 2.128934420568135 0 0 0
20 3 7.668573 1.4758179999999996 2.1289344704221547 0 0 0
22 3 3.834287 3.6895439999999997 2.128934536063192 0 0 0
23 3 6.390478 3.6895439999999997 2.1289345328568103 0 0 0
35 3 5.112382 0 4.163836303456819 0 0 0
36 3 7.668573 0 4.1638365244228455 0 0 0
38 3 3.834287 2.213726 4.163836315531014 0 0 0
39 3 6.390478 2.213726 4.163836305109229 0 0 0
4 3 8.946668999999996 0.7379089999999998 0.09702659669283356 0 0 0
8 3 10.224764000000004 2.951635 0.09702665470970166 0 0 0
17 3 10.224764 1.4758179999999996 2.1289344086268867 0 0 0
24 3 8.946669 3.6895439999999997 2.128934541627621 0 0 0
40 3 8.946669 2.213726 4.1638363311301765 0 0 0
21 3 11.502859999999998 3.6895439999999997 2.1289345399151616 0 0 0
9 3 3.834287 5.165361 0.09702635591670859 0 0 0
10 3 6.390478 5.165361 0.0970263499535381 0 0 0
13 3 5.112382 7.379087999999999 0.09702692188326865 0 0 0
14 3 7.668573 7.379087999999999 0.09702678605623173 0 0 0
26 3 5.112382 5.90327 2.128934185284584 0 0 0
27 3 7.668573 5.90327 2.128934171611893 0 0 0
30 3 6.390478 8.116997 2.1289344771537086 0 0 0
42 3 5.112382 4.427453 4.163836276754925 0 0 0
43 3 7.668573 4.427453 4.163836279703741 0 0 0
45 3 3.834287 6.641179 4.163836118698883 0 0 0
46 3 6.390478 6.641179 4.1638361470695795 0 0 0
11 3 8.946669 5.165361 0.09702636510054832 0 0 0
15 3 10.224764 7.379087999999999 0.09702680719506626 0 0 0
28 3 10.224764 5.90327 2.1289341942599713 0 0 0
31 3 8.946669 8.116997 2.1289344764041447 0 0 0
44 3 10.224764 4.427453 4.163836286618549 0 0 0
47 3 8.946669 6.641179 4.163836169651837 0 0 0
12 3 11.502859999999998 5.165361 0.09702637061417548 0 0 0
16 3 12.780955 7.379087999999999 0.09702666383962522 0 0 0
25 3 12.780955 5.90327 2.1289341554560197 0 0 0
29 3 14.059050999999998 8.116997 2.128934486274686 0 0 0
32 3 11.502859999999998 8.116997 2.1289345030126676 0 0 0
41 3 12.780955000000002 4.427453 4.163836280114038 -1 0 0
48 3 11.502859999999998 6.641179 4.163836224895902 0 0 0
49 3 2.373606 2.002895 6.271769704880735 0 0 0
53 3 3.651701 4.216622 6.271769682065476 0 0 0
50 3 4.929797 2.002895 6.27176969756299 0 0 0
51 3 7.485987999999998 2.002895 6.271769666338493 0 0 0
54 3 6.207891999999999 4.216622 6.271769675030819 0 0 0
52 3 10.042179 2.002895 6.271769737907675 0 0 0
55 3 8.764083 4.216622 6.271769683521485 0 0 0
56 3 11.320274000000001 4.216622 6.271769691502335 0 0 0
57 3 4.929797 6.430348 6.271769700482707 0 0 0
58 3 7.485987999999999 6.430348 6.271769849688582 0 0 0
61 3 6.2078919999999975 8.644074 6.271769676039429 0 0 0
59 3 10.042179 6.430348 6.271769864974181 0 0 0
62 3 8.764083 8.644074 6.271769687756109 0 0 0
63 3 11.320274000000001 8.644074 6.271769678712638 0 0 0
60 3 12.598369999999996 6.430348 6.271770002677578 0 0 0
64 3 13.876465999999999 8.644074 6.271769628079952 0 0 0
66 3 3.651701 2.740804 8.306671589865546 0 0 0
78 3 2.373606 0.527078 8.30667142064274 0 0 0
81 3 1.09551 1.264986 10.338579314931774 0 0 0
82 3 3.651700999999999 1.264986 10.338579278904593 0 0 0
85 3 2.373606 3.478713 10.338579482410637 0 0 0
67 3 6.207892 2.740804 8.306671578434498 0 0 0
79 3 4.929796999999999 0.527078 8.306671415806296 0 0 0
80 3 7.485987999999998 0.527078 8.306671227329652 0 0 0
83 3 6.207892 1.264986 10.338579244374676 0 0 0
86 3 4.929797 3.478713 10.338579461823935 0 0 0
87 3 7.485987999999999 3.478713 10.338579476803284 0 0 0
65 3 11.320274 2.740804 8.306671603243775 0 0 0
68 3 8.764083 2.740804 8.306671590487284 0 0 0
77 3 10.042179 0.527078 8.306671585296794 0 0 0
84 3 8.764083 1.264986 10.33857927901075 0 0 0
88 3 10.042179 3.478713 10.338579471247998 0 0 0
89 3 3.651701 5.692439 10.338579231856514 0 0 0
70 3 4.929796999999999 4.954529999999998 8.306671514873733 0 0 0
71 3 7.485987999999999 4.954529999999998 8.30667154740483 0 0 0
74 3 6.207891999999999 7.168256999999997 8.30667181865019 0 0 0
90 3 6.207892 5.692439 10.338579218552487 0 0 0
93 3 4.929796999999999 7.906166 10.338579822865936 0 0 0
94 3 7.485987999999998 7.906166 10.338579593624226 0 0 0
72 3 10.042179 4.954529999999998 8.30667155633167 0 0 0
75 3 8.764083 7.168256999999997 8.306671821522091 0 0 0
76 3 11.320274000000001 7.168256999999997 8.30667181651084 0 0 0
91 3 8.764083 5.692439 10.338579239880332 0 0 0
92 3 11.320274000000001 5.692439 10.338579255108497 0 0 0
95 3 10.042179 7.906166 10.338579610359432 0 0 0
69 3 12.59837 4.954529999999998 8.306671584050921 0 0 0
73 3 13.876466 7.168256999999997 8.306671807104953 0 0 0
96 3 12.59837 7.906166 10.338579368701922 0 0 0

Velocities

1 0 0 0
5 0 0 0
18 0 0 0
33 0 0 0
34 0 0 0
37 0 0 0
2 0 0 0
3 0 0 0
6 0 0 0
7 0 0 0
19 0 0 0
20 0 0 0
22 0 0 0
23 0 0 0
35 0 0 0
36 0 0 0
38 0 0 0
39 0 0 0
4 0 0 0
8 0 0 0
17 0 0 0
24 0 0 0
40 0 0 0
21 0 0 0
9 0 0 0
10 0 0 0
13 0 0 0
14 0 0 0
26 0 0 0
27 0 0 0
30 0 0 0
42 0 0 0
43 0 0 0
45 0 0 0
46 0 0 0
11 0 0 0
15 0 0 0
28 0 0 0
31 0 0 0
44 0 0 0
47 0 0 0
12 0 0 0
16 0 0 0
25 0 0 0
29 0 0 0
32 0 0 0
41 0 0 0
48 0 0 0
49 0 0 0
53 0 0 0
50 0 0 0
51 0 0 0
54 0 0 0
52 0 0 0
55 0 0 0
56 0 0 0
57 0 0 0
58 0 0 0
61 0 0 0
59 0 0 0
62 0 0 0
63 0 0 0
60 0 0 0
64 0 0 0
66 0 0 0
78 0 0 0
81 0 0 0
82 0 0 0
85 0 0 0
67 0 0 0
79 0 0 0
80 0 0 0
83 0 0 0
86 0 0 0
87 0 0 0
65 0 0 0
68 0 0 0
77 0 0 0
84 0 0 0
88 0 0 0
89 0 0 0
70 0 0 0
71 0 0 0
74 0 0 0
90 0 0 0
93 0 0 0
94 0 0 0
72 0 0 0
75 0 0 0
76 0 0 0
91 0 0 0
92 0 0 0
95 0 0 0
69 0 0 0
73 0 0 0
96 0 0 0
