LAMMPS data file via write_data, version 22 Jul 2025, timestep = 4, units = metal

96 atoms
3 atom types

0 10.224764 xlo xhi
0 8.854905 ylo yhi
0 12.522727 zlo zhi
5.112382 0 0 xy xz yz

Masses

1 63.55
2 63.55
3 63.55

Atoms # atomic

1 3 1.278096 0.7379089999999998 0.015068173499369572 0 0 0
5 3 2.556191 2.951635 0.01506815392634458 0 0 0
18 3 2.556191 1.4758179999999996 2.0871212400452075 0 0 0
33 3 0 0 4.159174256623795 0 0 0
34 3 2.556191 0 4.1591743030895625 0 0 0
37 3 1.278096 2.213726 4.159174438069981 0 0 0
2 3 3.834287 0.7379089999999998 0.01506815854422675 0 0 0
3 3 6.390478 0.7379089999999998 0.0150681169632379 0 0 0
6 3 5.112382 2.951635 0.015068152717277577 0 0 0
7 3 7.668573 2.951635 0.015068153311974437 0 0 0
19 3 5.112382 1.4758179999999996 2.087121234293004 0 0 0
20 3 7.668573 1.4758179999999996 2.0871212412413955 0 0 0
22 3 3.834287 3.6895439999999997 2.0871213535253506 0 0 0
23 3 6.390478 3.6895439999999997 2.0871213514496 0 0 0
35 3 5.112382 0 4.159174295575981 0 0 0
36 3 7.668573 0 4.159174340908863 0 0 0
38 3 3.834287 2.213726 4.159174436173451 0 0 0
39 3 6.390478 2.213726 4.159174433852839 0 0 0
4 3 8.946668999999996 0.7379089999999998 0.015068184753664584 0 0 0
8 3 10.224764000000004 2.951635 0.015068152588550121 0 0 0
17 3 10.224764 1.4758179999999996 2.0871212382845212 0 0 0
24 3 8.946669 3.6895439999999997 2.0871213519645018 0 0 0
40 3 8.946669 2.213726 4.159174436873273 0 0 0
21 3 11.502859999999998 3.6895439999999997 2.0871213530668467 0 0 0
9 3 3.834287 5.165361 0.015068107758554583 0 0 0
10 3 6.390478 5.165361 0.01506810050728974 0 0 0
13 3 5.112382 7.379087999999999 0.015068455895362948 0 0 0
14 3 7.668573 7.379087999999999 0.015068343495226642 0 0 0
26 3 5.112382 5.90327 2.0871210603958366 0 0 0
27 3 7.668573 5.90327 2.087121041130476 0 0 0
30 3 6.390478 8.116997 2.087121253183058 0 0 0
42 3 5.112382 4.427453 4.159174323244819 0 0 0
43 3 7.668573 4.427453 4.159174320851474 0 0 0
45 3 3.834287 6.641179 4.159174136236558 0 0 0
46 3 6.390478 6.641179 4.159174142593983 0 0 0
11 3 8.946669 5.165361 0.015068103878672431 0 0 0
15 3 10.224764 7.379087999999999 0.01506834192489995 0 0 0
28 3 10.224764 5.90327 2.087121046198966 0 0 0
31 3 8.946669 8.116997 2.0871212386291087 0 0 0
44 3 10.224764 4.427453 4.159174323650201 0 0 0
47 3 8.946669 6.641179 4.159174149658818 0 0 0
12 3 11.502859999999998 5.165361 0.015068111872310979 0 0 0
16 3 12.780955 7.379087999999999 0.015068139549840633 0 0 0
25 3 12.780955 5.90327 2.0871210118552423 0 0 0
29 3 14.059050999999998 8.116997 2.0871212246666726 0 0 0
32 3 11.502859999999998 8.116997 2.087121209085363 0 0 0
41 3 12.780955000000002 4.427453 4.159174318794279 -1 0 0
48 3 11.502859999999998 6.641179 4.159174163520574 0 0 0
49 3 3.651701 1.054155 6.2764316608659145 0 0 0
52 3 1.09551 1.054155 6.276431667122375 0 0 0
56 3 2.373606 3.267882 6.276431750891454 0 0 0
50 3 6.2078919999999975 1.054155 6.276431651885464 0 0 0
53 3 4.929797 3.267882 6.276431752128167 0 0 0
54 3 7.485987999999999 3.267882 6.276431749774418 0 0 0
51 3 8.764083 1.054155 6.276431664183354 0 0 0
55 3 10.042179000000003 3.267882 6.276431753338305 0 0 0
60 3 3.651700999999999 5.481608 6.276431675230185 0 0 0
57 3 6.207891999999999 5.481608 6.276431655792514 0 0 0
61 3 7.485988 7.695334 6.276431715137364 0 0 0
64 3 4.929797 7.695334 6.2764315653813645 0 0 0
58 3 8.764083 5.481608 6.27643167461366 0 0 0
59 3 11.320274000000001 5.481608 6.276431698199467 0 0 0
62 3 10.042179 7.695334 6.27643171013394 0 0 0
63 3 12.598369999999996 7.695334 6.276431865883499 0 0 0
65 3 2.3736059999999997 1.792064 8.34848460582955 0 0 0
69 3 3.651701 4.005791 8.348484775585565 0 0 0
81 3 2.373606 0.316247 10.420537805417279 0 0 0
85 3 3.651701 2.529973 10.420537647635177 0 0 0
66 3 4.929797 1.792064 8.348484605188533 0 0 0
67 3 7.485988 1.792064 8.348484583722481 0 0 0
70 3 6.207892 4.005791 8.348484773576093 0 0 0
82 3 4.929797 0.316247 10.420537800998668 0 0 0
83 3 7.485988 0.316247 10.42053766646192 0 0 0
86 3 6.2078919999999975 2.529973 10.420537646546768 0 0 0
68 3 10.042179 1.792064 8.348484626744384 0 0 0
71 3 8.764083 4.005791 8.348484775467044 0 0 0
72 3 11.320274 4.005791 8.348484777591212 0 0 0
84 3 10.042179 0.316247 10.420537938656848 0 0 0
87 3 8.764083 2.529973 10.420537648237966 0 0 0
88 3 11.320274 2.529973 10.420537647969114 0 0 0
73 3 4.929796999999999 6.219517 8.348484811411991 0 0 0
74 3 7.485987999999998 6.219517 8.348484944312643 0 0 0
77 3 6.207892 8.433243 8.348484807700846 0 0 0
89 3 4.929796999999999 4.743699 10.420537796639671 0 0 0
90 3 7.485988 4.743699 10.420537814398394 0 0 0
93 3 6.207892 6.957426 10.420537981640207 0 0 0
75 3 10.042179 6.219517 8.34848494391974 0 0 0
78 3 8.764083 8.433243 8.34848480096852 0 0 0
79 3 11.320274 8.433243 8.348484794872752 0 0 0
91 3 10.042179 4.743699 10.420537815025389 0 0 0
94 3 8.764083 6.957426 10.420537970375602 0 0 0
95 3 11.320274000000001 6.957426 10.420537974902427 0 0 0
76 3 12.598369999999996 6.219517 8.348485103209867 0 0 0
80 3 13.876465999999999 8.433243 8.348484812397638 0 0 0
92 3 12.59837 4.743699 10.42053784002226 0 0 0
96 3 13.876466 6.957426 10.4205380320916 0 0 0

Velocities

1 0 0 0
5 0 0 0
18 0 0 0
33 0 0 0
34 0 0 0
37 0 0 0
2 0 0 0
3 0 0 0
6 0 0 0
7 0 0 0
19 0 0 0
20 0 0 0
22 0 0 0
23 0 0 0
35 0 0 0
36 0 0 0
38 0 0 0
39 0 0 0
4 0 0 0
8 0 0 0
17 0 0 0
24 0 0 0
40 0 0 0
21 0 0 0
9 0 0 0
10 0 0 0
13 0 0 0
14 0 0 0
26 0 0 0
27 0 0 0
30 0 0 0
42 0 0 0
43 0 0 0
45 0 0 0
46 0 0 0
11 0 0 0
15 0 0 0
28 0 0 0
31 0 0 0
44 0 0 0
47 0 0 0
12 0 0 0
16 0 0 0
25 0 0 0
29 0 0 0
32 0 0 0
41 0 0 0
48 0 0 0
49 0 0 0
52 0 0 0
56 0 0 0
50 0 0 0
53 0 0 0
54 0 0 0
51 0 0 0
55 0 0 0
60 0 0 0
57 0 0 0
61 0 0 0
64 0 0 0
58 0 0 0
59 0 0 0
62 0 0 0
63 0 0 0
65 0 0 0
69 0 0 0
81 0 0 0
85 0 0 0
66 0 0 0
67 0 0 0
70 0 0 0
82 0 0 0
83 0 0 0
86 0 0 0
68 0 0 0
71 0 0 0
72 0 0 0
84 0 0 0
87 0 0 0
88 0 0 0
73 0 0 0
74 0 0 0
77 0 0 0
89 0 0 0
90 0 0 0
93 0 0 0
75 0 0 0
78 0 0 0
79 0 0 0
91 0 0 0
94 0 0 0
95 0 0 0
76 0 0 0
80 0 0 0
92 0 0 0
96 0 0 0
