#Header 
 
12 atoms 
 
2 atom types 
 
-4.96021673 4.96021673 xlo xhi 
0.00000000 7.01480577 ylo yhi 
0.00000000 2.86378246 zlo zhi 

Atoms 
 
1 1 2.48010836 0.00000000 1.43189123
2 1 4.13351394 2.33826859 1.43189123
3 1 0.00000000 0.00000000 0.00000000
4 1 1.65340558 2.33826859 0.00000000
5 1 0.82670279 4.67653718 1.43189123
6 1 3.30681115 4.67653718 0.00000000
7 2 -2.48010836 0.00000000 1.43189123
8 2 -4.96021673 0.00000000 0.00000000
9 2 -4.13351394 2.33826859 1.43189123
10 2 -1.65340558 2.33826859 0.00000000
11 2 -3.30681115 4.67653718 0.00000000
12 2 -0.82670279 4.67653718 1.43189123
