LAMMPS data file via write_data, version 22 Jul 2025, timestep = 15, units = metal

261 atoms
3 atom types

0 7.668573 xlo xhi
0 6.641179 ylo yhi
0 60.526515 zlo zhi
3.834287 0 0 xy xz yz

Masses

1 63.55
2 63.55
3 63.55

Atoms # atomic

1 1 7.668572935724084 1.2714328911838866e-07 60.52418230054292 -1 0 -1
2 1 2.556190955255094 1.2108650096647014e-07 60.52418230106825 0 0 -1
5 1 3.8342866103182915 2.2137264644945986 60.52418231386041 0 0 -1
10 1 1.2780954875050912 0.7379088910814388 2.0826852059091037 0 0 0
11 1 3.83428648750513 0.73790888935393 2.0826851921678204 0 0 0
13 1 2.556191161166532 2.9516352335664124 2.0826851793763685 0 0 0
3 1 5.1123819357240565 1.1502973527995201e-07 60.524182301593605 0 0 -1
6 1 6.390477603304884 2.213726464097941 60.524182309963024 0 0 -1
8 1 5.112382265720328 4.4274527723831 60.52418230829521 0 0 -1
9 1 7.6685732657203864 4.427452779434731 60.524182308058045 0 0 -1
12 1 6.390477472569616 0.7379088902176812 2.082685199038489 0 0 0
14 1 5.112382143657744 2.95163522812977 2.0826851753703437 0 0 0
15 1 7.6685731436577935 2.9516352390031138 2.082685183382419 0 0 0
16 1 3.834286808886553 5.165361556828366 2.0826851918728857 0 0 0
17 1 6.390477823582759 5.165361553046555 2.0826851945353853 0 0 0
4 1 8.946668610318268 2.2137264637012177 60.52418230606569 -1 0 -1
7 1 10.224764283923289 4.4274527759089 60.5241823081766 -1 0 -1
18 1 8.946668808886482 5.165361549264799 2.0826851971978626 0 0 0
19 1 2.5561910168811037 1.4758176555067886 4.170644976784411 0 0 0
28 1 7.668572888372614 1.2117777559065006e-07 6.258555645078611 -1 0 0
29 1 2.556190906886734 1.260588840123354e-07 6.258555646626441 0 0 0
32 1 3.834286558439307 2.2137264680731437 6.258555649147963 0 0 0
20 1 5.112382013693209 1.4758176585699228 4.1706449739782725 0 0 0
21 1 7.668573013693201 1.475817652443633 4.170644979590533 0 0 0
22 1 3.8342866810381713 3.6895440035819678 4.170644982586662 0 0 0
23 1 6.390477691056731 3.689544003737189 4.1706449772769965 0 0 0
25 1 5.1123823520722596 5.903270348978741 4.170644965384625 0 0 0
26 1 7.668573352072304 5.903270334572083 4.170644965918195 0 0 0
30 1 5.112381888372576 1.309399489322007e-07 6.2585556481742515 0 0 0
33 1 6.390477552214505 2.2137264647319816 6.258555647499651 0 0 0
35 1 5.11238221893424 4.4274527540495585 6.258555652664507 0 0 0
36 1 7.668573218934328 4.427452769865531 6.258555654586867 0 0 0
24 1 8.946668681038139 3.6895440038924088 4.170644971967389 0 0 0
27 1 10.224764349125426 5.903270341775411 4.1706449656514275 0 0 0
31 1 8.946668558439306 2.213726461390802 6.258555645851347 -1 0 0
34 1 10.224764241827444 4.427452761957512 6.258555653625668 -1 0 0
37 1 1.2780954201890986 0.7379088745078775 8.34645787844278 0 0 0
38 1 3.8342864201891302 0.7379088663989459 8.346457866605054 0 0 0
40 1 2.5561910882209107 2.9516352322024106 8.3464578607588 0 0 0
46 1 2.5561909368427433 1.4758176565382441 10.434357799106706 0 0 0
39 1 6.390477414343811 0.7379088704534276 8.34645787252395 0 0 0
41 1 5.112382078899446 2.9516352251842948 8.346457858642767 0 0 0
42 1 7.668573078899469 2.9516352392205603 8.346457862874804 0 0 0
43 1 3.834286741470355 5.165361543626647 8.346457871759988 0 0 0
44 1 6.3904777587060835 5.165361545497483 8.346457873238935 0 0 0
47 1 5.11238193526578 1.475817659572159 10.434357795486834 0 0 0
48 1 7.668572935265754 1.475817653504335 10.43435780272654 0 0 0
49 1 3.8342866016303887 3.6895439957158382 10.434357787498273 0 0 0
50 1 6.39047760887426 3.6895439926240967 10.434357784986362 0 0 0
52 1 5.112382264269651 5.90327034243887 10.434357786923233 0 0 0
53 1 7.668573264269683 5.903270333753365 10.434357784400289 0 0 0
45 1 8.94666874147031 5.165361547368332 8.346457874717913 0 0 0
51 1 8.94666860163043 3.689543989532375 10.434357782474473 0 0 0
54 1 10.22476427333585 5.903270338096109 10.434357785661751 0 0 0
55 1 7.668572780042742 1.1290894383640368e-07 12.522257849078068 -1 0 0
56 1 2.556190793926171 1.1756260109562134e-07 12.522257854601817 0 0 0
59 1 3.8342864464714097 2.2137264494219475 12.522257866374275 0 0 0
64 1 1.2780952823246006 0.7379088733045857 14.610166577463803 0 0 0
65 1 3.834286282324592 0.7379088728625083 14.610166575476509 0 0 0
67 1 2.5561909483382674 2.951635222473625 14.610166567978023 0 0 0
57 1 5.112381780042705 1.2221629992425145e-07 12.522257860125567 0 0 0
60 1 6.390477453071422 2.213726445180927 12.522257860610146 0 0 0
62 1 5.1123821145724175 4.4274527664653816 12.522257875619275 0 0 0
63 1 7.668573114572457 4.427452774707757 12.52225787474343 0 0 0
66 1 6.390477272524303 0.7379088730835628 14.610166576470132 0 0 0
68 1 5.112381936162173 2.951635217503833 14.61016656812172 0 0 0
69 1 7.6685729361622 2.9516352274433864 14.610166567834252 0 0 0
70 1 3.834286605355943 5.165361522974475 14.61016656962017 0 0 0
71 1 6.39047761863057 5.165361528118773 14.610166572134593 0 0 0
58 1 8.9466684464714 2.213726440939921 12.522257854846043 -1 0 0
61 1 10.224764130055975 4.42745277058656 12.52225787518135 -1 0 0
72 1 8.946668605355924 5.165361533263028 14.610166574649007 0 0 0
73 1 2.556190769964359 1.4758176443940243 16.698110479863658 0 0 0
82 1 7.668572563365027 9.163161597094278e-08 18.783173913544072 -1 0 0
83 1 2.5561905791201207 1.0197580894526208e-07 18.783173914274805 0 0 0
86 1 3.8342862328505283 2.213726441673561 18.783173912785582 0 0 0
74 1 5.112381757849562 1.4758176499793159 16.698110478106678 0 0 0
75 1 7.668572757849563 1.4758176388087432 16.698110481620645 0 0 0
76 1 3.834286424214543 3.6895439850702196 16.69811047931153 0 0 0
77 1 6.390477429842967 3.6895439806434656 16.698110474484704 0 0 0
79 1 5.112382092427798 5.903270323028304 16.698110473215294 0 0 0
80 1 7.668573092427781 5.903270324269007 16.698110471853827 0 0 0
84 1 5.112381563365035 1.1232003921154076e-07 18.78317391500554 0 0 0
87 1 6.390477241351432 2.2137264320586767 18.783173912605466 0 0 0
89 1 5.1123818957348615 4.42745275523292 18.783173914763292 0 0 0
90 1 7.668572895734895 4.4274527617662764 18.78317391590346 0 0 0
78 1 8.94666842421461 3.689543976216713 16.698110469657887 0 0 0
81 1 10.22476409833605 5.903270323648622 16.69811047253457 0 0 0
85 1 8.946668232850543 2.2137264224438584 18.783173912425355 -1 0 0
88 1 10.22476391436594 4.427452758499575 18.783173915333375 -1 0 0
91 1 2.5561907693869514 1.475817644562968 20.868237437790754 0 0 0
92 1 5.112381758033862 1.4758176503034761 20.86823743921859 0 0 0
93 1 7.668572758033861 1.4758176388224715 20.868237436362914 0 0 0
94 1 3.8342864241377965 3.689543984363085 20.86823743791284 0 0 0
95 1 6.390477429785847 3.6895439794624014 20.868237441866977 0 0 0
97 1 5.112382091932279 5.903270324087632 20.86823744173529 0 0 0
98 1 7.6685730919322665 5.9032703251930485 20.86823744061299 0 0 0
96 1 8.946668424137858 3.689543974561725 20.86823744582111 0 0 0
99 1 10.224764099099811 5.9032703246403075 20.868237441174138 0 0 0
100 1 1.2780952827282537 0.7379088722336472 22.956180512631615 0 0 0
101 1 3.834286282728241 0.7379088720209728 22.95618051470667 0 0 0
103 1 2.556190948962609 2.951635224774172 22.95618051935045 0 0 0
109 1 7.668572780606685 1.1601580767411809e-07 25.0440876915684 -1 0 0
110 1 2.5561907932733674 1.2087404811339526e-07 25.0440876861337 0 0 0
113 1 3.8342864466754008 2.2137264486658688 25.044087676807617 0 0 0
102 1 6.390477271453402 0.7379088721273253 22.956180513669167 0 0 0
104 1 5.112381935723127 2.9516352195739044 22.956180518925017 0 0 0
105 1 7.668572935723154 2.951635229974413 22.956180519775963 0 0 0
106 1 3.834286605243629 5.165361521089887 22.956180519671754 0 0 0
107 1 6.3904776186388315 5.165361526803487 22.956180518006654 0 0 0
111 1 5.112381780606654 1.2573233018118269e-07 25.044087680699 0 0 0
114 1 6.39047745333537 2.2137264436145068 25.04408768181463 0 0 0
116 1 5.112382114303376 4.427452765114955 25.044087667403968 0 0 0
117 1 7.668573114303413 4.427452773206968 25.044087667733155 0 0 0
108 1 8.946668605243616 5.165361532517043 22.956180516341547 0 0 0
112 1 8.94666844667539 2.213726438563162 25.04408768682163 -1 0 0
115 1 10.22476413156053 4.4274527691609515 25.044087667568565 -1 0 0
118 1 2.5561909419184152 1.4758176571314598 27.131989960869735 0 0 0
127 1 1.2780954296981595 0.7379088822947584 29.21988895036329 0 0 0
128 1 3.8342864296981976 0.7379088738226782 29.219888959858675 0 0 0
130 1 2.5561910978548537 2.951635227260478 29.21988896393973 0 0 0
119 1 5.112381936581207 1.4758176581658562 27.13198996215007 0 0 0
120 1 7.6685729365811826 1.4758176560970677 27.13198995958944 0 0 0
121 1 3.8342866030198737 3.6895439996181025 27.131989967090373 0 0 0
122 1 6.390477613947191 3.689543996635585 27.131989971250427 0 0 0
124 1 5.112382267444912 5.903270339215371 27.131989971992656 0 0 0
125 1 7.668573267444951 5.903270332501321 27.13198997337591 0 0 0
129 1 6.390477430880228 0.7379088780587284 29.219888955110942 0 0 0
131 1 5.112382091170723 2.951635223702778 29.219888966667156 0 0 0
132 1 7.668573091170749 2.9516352308182 29.21988896121232 0 0 0
133 1 3.834286756058762 5.165361550643285 29.21988895757473 0 0 0
134 1 6.390477767185784 5.165361552158322 29.219888956703137 0 0 0
123 1 8.946668603019912 3.6895439936530896 27.131989975410438 0 0 0
126 1 10.224764274305985 5.90327033585834 27.131989972684288 0 0 0
135 1 8.946668756058738 5.165361553673372 29.21988895583152 0 0 0
136 1 7.6685729233299815 1.2569330780323646e-07 31.3077891975878 -1 0 0
137 1 2.5561909406914145 1.3030334690158622e-07 31.307789195545052 0 0 0
140 1 3.8342865906001933 2.2137264729148134 31.30778919330972 0 0 0
145 1 2.556191092072397 1.4758176614481273 33.39570175406158 0 0 0
138 1 5.112381923329949 1.3491336048906178e-07 31.307789193502362 0 0 0
141 1 6.39047759085734 2.2137264682527618 31.30778919410624 0 0 0
143 1 5.112382256124215 4.427452766293368 31.30778918888581 0 0 0
144 1 7.668573256124299 4.427452781564696 31.307789187832203 0 0 0
146 1 5.1123820855888775 1.4758176636563445 33.395701759072274 0 0 0
147 1 7.6685730855888785 1.4758176592398957 33.39570174905085 0 0 0
148 1 3.834286753490682 3.6895440128549963 33.3957017565729 0 0 0
149 1 6.3904777656680665 3.6895440094796377 33.39570175986426 0 0 0
151 1 5.112382421674561 5.9032703546628875 33.39570176289205 0 0 0
152 1 7.668573421674635 5.903270348710255 33.395701767285445 0 0 0
139 1 8.946668590600174 2.21372646359069 31.307789194902735 -1 0 0
142 1 10.224764279195092 4.4274527739290095 31.307789188359013 -1 0 0
150 1 8.946668753490627 3.689544006104291 33.39570176315557 0 0 0
153 1 10.224764427031335 5.903270351686592 33.39570176508872 0 0 0
154 1 1.278095610483892 0.7379088996304046 35.48364485031727 0 0 0
155 1 3.8342866104839137 0.7379088897008785 35.483644854774454 0 0 0
157 1 2.5561912777454783 2.9516352430159936 35.48364486687304 0 0 0
163 1 1.38293774285699e-07 1.372593721355236e-07 37.56870612722975 0 0 0
164 1 2.556191162054566 1.3377133358766635e-07 37.56870612721482 0 0 0
167 1 3.83428680511883 2.2137264852831953 37.56870612911005 0 0 0
156 1 6.390477601004603 0.7379088946656693 35.483644852545865 0 0 0
158 1 5.112382264796868 2.951635239811377 35.483644870219216 0 0 0
159 1 7.668573264796906 2.9516352462206985 35.483644863526884 0 0 0
160 1 3.8342869344139237 5.165361560662713 35.48364485689962 0 0 0
161 1 6.3904779511677505 5.165361561402766 35.48364485525762 0 0 0
165 1 5.112382138293743 1.3028332306863718e-07 37.568706127199874 0 0 0
168 1 6.390477802153098 2.2137264869913396 37.56870612832901 0 0 0
170 1 5.1123824752187375 4.427452782771267 37.568706126239285 0 0 0
171 1 7.668573475218848 4.427452801422343 37.568706124905184 0 0 0
162 1 8.946668934413829 5.165361562142903 35.483644853615665 0 0 0
166 1 1.278095805118791 2.213726488699432 37.56870612754797 0 0 0
169 1 2.5561914910252383 4.4274527920968 37.56870612557223 0 0 0
172 1 1.2780956098050307 0.7379088992107857 39.65377086500156 0 0 0
173 1 3.8342866098050576 0.737908889717716 39.65377085794365 0 0 0
175 1 2.556191277749931 2.951635241509927 39.65377084466996 0 0 0
174 1 6.3904776022702805 0.737908894464283 39.6537708614726 0 0 0
176 1 5.11238226476695 2.951635238883061 39.65377083916929 0 0 0
177 1 7.668573264766976 2.9516352441368805 39.653770850170616 0 0 0
178 1 3.8342869347458346 5.165361562792442 39.653770859664476 0 0 0
179 1 6.390477950431775 5.165361563154427 39.65377086212151 0 0 0
180 1 8.946668934745738 5.1653615635165 39.653770864578476 0 0 0
181 1 2.556191093844818 1.4758176634150266 41.741713025991814 0 0 0
190 1 7.668572925973036 1.2704928100025403e-07 43.82961600346787 -1 0 0
191 1 2.556190940512551 1.309962492998922e-07 43.82961600646572 0 0 0
194 1 3.83428659125948 2.213726471937873 43.829616010966035 0 0 0
182 1 5.112382084954255 1.4758176652868042 41.741713022208 0 0 0
183 1 7.668573084954264 1.4758176615432355 41.741713029775624 0 0 0
184 1 3.8342867539324867 3.689544012666194 41.74171302375575 0 0 0
185 1 6.390477765511493 3.6895440100073444 41.74171301874449 0 0 0
187 1 5.112382422508935 5.9032703519979135 41.7417130138604 0 0 0
188 1 7.668573422509006 5.903270347234382 41.74171300726235 0 0 0
192 1 5.112381925973007 1.3494319943757727e-07 43.82961600946352 0 0 0
195 1 6.390477594720787 2.2137264669664405 43.829616009350005 0 0 0
197 1 5.112382258215798 4.427452770777022 43.829616016093674 0 0 0
198 1 7.668573258215877 4.4274527830960455 43.82961602094521 0 0 0
186 1 8.946668753932428 3.689544007348494 41.74171301373328 0 0 0
189 1 10.224764425944159 5.90327034961617 41.7417130105614 0 0 0
193 1 8.94666859125945 2.213726461994985 43.82961600773398 -1 0 0
196 1 10.224764280333982 4.42745277693652 43.82961601851943 -1 0 0
199 1 1.2780954382611276 0.7379088913197305 45.91751585611156 0 0 0
200 1 3.8342864382611537 0.7379088849165217 45.917515844250765 0 0 0
202 1 2.556191112458764 2.9516352296565063 45.91751583493513 0 0 0
208 1 2.556190958734713 1.4758176542914871 48.0054195438737 0 0 0
201 1 6.390477435895982 0.7379088881181278 45.917515850181196 0 0 0
203 1 5.112382095724445 2.9516352249859494 45.91751583200042 0 0 0
204 1 7.668573095724486 2.9516352343271084 45.91751583786985 0 0 0
205 1 3.834286762517984 5.165361542939525 45.917515843456734 0 0 0
206 1 6.390477776090748 5.1653615472120755 45.91751584317228 0 0 0
209 1 5.112381960444082 1.475817652286677 48.00541954620762 0 0 0
210 1 7.668572960444045 1.4758176562963103 48.00541954153975 0 0 0
211 1 3.8342866247511225 3.6895440100306045 48.00541954678458 0 0 0
212 1 6.390477637347839 3.689544004036016 48.00541954555406 0 0 0
214 1 5.112382288483938 5.903270349175712 48.00541954045147 0 0 0
215 1 7.668573288483993 5.903270338902412 48.0054195423818 0 0 0
207 1 8.94666876251796 5.165361551484637 45.917515842887845 0 0 0
213 1 8.94666862475112 3.6895439980414646 48.005419544323594 0 0 0
216 1 10.224764295151909 5.903270344039071 48.00541954141663 0 0 0
217 1 7.668572823560061 1.1439383478352521e-07 50.09332100515624 -1 0 0
218 1 2.5561908416996504 1.2273236094416457e-07 50.09332100739747 0 0 0
221 1 3.834286498327531 2.213726461724702 50.09332101685075 0 0 0
226 1 1.2780953635907129 0.737908876002147 52.18122369181221 0 0 0
227 1 3.834286363590728 0.7379088690510618 52.18122368664315 0 0 0
229 1 2.556191035702655 2.9516352373245 52.181223680280254 0 0 0
219 1 5.112381823560027 1.3107088898542486e-07 50.09332100963871 0 0 0
222 1 6.390477488973592 2.2137264579024816 50.09332101048451 0 0 0
224 1 5.112382157625497 4.427452759452016 50.093321023039074 0 0 0
225 1 7.668573157625575 4.427452768544693 50.09332102417895 0 0 0
228 1 6.390477359038183 0.7379088725266366 52.181223689227686 0 0 0
230 1 5.112382018756146 2.9516352328990365 52.18122367810426 0 0 0
231 1 7.668573018756171 2.9516352417500027 52.18122368245624 0 0 0
232 1 3.834286682760377 5.165361528002356 52.181223684813666 0 0 0
233 1 6.390477704678273 5.165361535054916 52.18122368670761 0 0 0
220 1 8.946668498327536 2.213726454080245 50.09332100411831 -1 0 0
223 1 10.224764179057232 4.427452763998329 50.093321023609015 -1 0 0
234 1 8.946668682760357 5.165361542107501 52.18122368860156 0 0 0
235 1 2.5561909079541913 1.475817660243613 54.26913494629539 0 0 0
244 1 7.668572765841438 1.061361503109229e-07 56.357090084768906 -1 0 0
245 1 2.556190783229666 1.1104296857457381e-07 56.357090089816026 0 0 0
248 1 3.8342864480188465 2.213726445459473 56.35709009985116 0 0 0
236 1 5.112381903311472 1.4758176576202946 54.26913494807831 0 0 0
237 1 7.668572903311451 1.4758176628669692 54.26913494451244 0 0 0
238 1 3.8342865675756173 3.6895440017949395 54.26913493205923 0 0 0
239 1 6.390477562942347 3.6895439946860153 54.26913493230387 0 0 0
241 1 5.112382227965904 5.903270342882861 54.26913494000554 0 0 0
242 1 7.668573227965936 5.903270344338701 54.26913492860011 0 0 0
246 1 5.112381765841401 1.1594979159147387e-07 56.35709009486312 0 0 0
249 1 6.390477434991665 2.2137264447316616 56.35709009237324 0 0 0
251 1 5.112382100808583 4.427452771514272 56.3570901072109 0 0 0
252 1 7.668573100808606 4.427452763161532 56.357090113266544 0 0 0
240 1 8.946668567575673 3.689543987577171 54.269134932548525 0 0 0
243 1 10.22476423857994 5.903270343610774 54.26913493430284 0 0 0
247 1 8.94666844801888 2.213726444003797 56.35709008489539 -1 0 0
250 1 10.224764114667135 4.427452767337893 56.3570901102387 -1 0 0
253 1 1.2780953147629461 0.7379088789256534 58.44210789760726 0 0 0
254 1 3.8342863147629282 0.7379088783761123 58.442107889516585 0 0 0
256 1 2.5561909940000533 2.951635225491578 58.44210788960956 0 0 0
255 1 6.390477306198132 0.7379088786509178 58.44210789356194 0 0 0
257 1 5.1123819733979925 2.9516352311827037 58.44210788982286 0 0 0
258 1 7.668572973398023 2.9516352198004827 58.4421078893963 0 0 0
259 1 3.8342866358663943 5.165361530713402 58.44210788493869 0 0 0
260 1 6.390477654456127 5.165361534749199 58.442107884039565 0 0 0
261 1 8.946668635866391 5.165361538785029 58.442107883140494 0 0 0

Velocities

1 0 0 0
2 0 0 0
5 0 0 0
10 0 0 0
11 0 0 0
13 0 0 0
3 0 0 0
6 0 0 0
8 0 0 0
9 0 0 0
12 0 0 0
14 0 0 0
15 0 0 0
16 0 0 0
17 0 0 0
4 0 0 0
7 0 0 0
18 0 0 0
19 0 0 0
28 0 0 0
29 0 0 0
32 0 0 0
20 0 0 0
21 0 0 0
22 0 0 0
23 0 0 0
25 0 0 0
26 0 0 0
30 0 0 0
33 0 0 0
35 0 0 0
36 0 0 0
24 0 0 0
27 0 0 0
31 0 0 0
34 0 0 0
37 0 0 0
38 0 0 0
40 0 0 0
46 0 0 0
39 0 0 0
41 0 0 0
42 0 0 0
43 0 0 0
44 0 0 0
47 0 0 0
48 0 0 0
49 0 0 0
50 0 0 0
52 0 0 0
53 0 0 0
45 0 0 0
51 0 0 0
54 0 0 0
55 0 0 0
56 0 0 0
59 0 0 0
64 0 0 0
65 0 0 0
67 0 0 0
57 0 0 0
60 0 0 0
62 0 0 0
63 0 0 0
66 0 0 0
68 0 0 0
69 0 0 0
70 0 0 0
71 0 0 0
58 0 0 0
61 0 0 0
72 0 0 0
73 0 0 0
82 0 0 0
83 0 0 0
86 0 0 0
74 0 0 0
75 0 0 0
76 0 0 0
77 0 0 0
79 0 0 0
80 0 0 0
84 0 0 0
87 0 0 0
89 0 0 0
90 0 0 0
78 0 0 0
81 0 0 0
85 0 0 0
88 0 0 0
91 0 0 0
92 0 0 0
93 0 0 0
94 0 0 0
95 0 0 0
97 0 0 0
98 0 0 0
96 0 0 0
99 0 0 0
100 0 0 0
101 0 0 0
103 0 0 0
109 0 0 0
110 0 0 0
113 0 0 0
102 0 0 0
104 0 0 0
105 0 0 0
106 0 0 0
107 0 0 0
111 0 0 0
114 0 0 0
116 0 0 0
117 0 0 0
108 0 0 0
112 0 0 0
115 0 0 0
118 0 0 0
127 0 0 0
128 0 0 0
130 0 0 0
119 0 0 0
120 0 0 0
121 0 0 0
122 0 0 0
124 0 0 0
125 0 0 0
129 0 0 0
131 0 0 0
132 0 0 0
133 0 0 0
134 0 0 0
123 0 0 0
126 0 0 0
135 0 0 0
136 0 0 0
137 0 0 0
140 0 0 0
145 0 0 0
138 0 0 0
141 0 0 0
143 0 0 0
144 0 0 0
146 0 0 0
147 0 0 0
148 0 0 0
149 0 0 0
151 0 0 0
152 0 0 0
139 0 0 0
142 0 0 0
150 0 0 0
153 0 0 0
154 0 0 0
155 0 0 0
157 0 0 0
163 0 0 0
164 0 0 0
167 0 0 0
156 0 0 0
158 0 0 0
159 0 0 0
160 0 0 0
161 0 0 0
165 0 0 0
168 0 0 0
170 0 0 0
171 0 0 0
162 0 0 0
166 0 0 0
169 0 0 0
172 0 0 0
173 0 0 0
175 0 0 0
174 0 0 0
176 0 0 0
177 0 0 0
178 0 0 0
179 0 0 0
180 0 0 0
181 0 0 0
190 0 0 0
191 0 0 0
194 0 0 0
182 0 0 0
183 0 0 0
184 0 0 0
185 0 0 0
187 0 0 0
188 0 0 0
192 0 0 0
195 0 0 0
197 0 0 0
198 0 0 0
186 0 0 0
189 0 0 0
193 0 0 0
196 0 0 0
199 0 0 0
200 0 0 0
202 0 0 0
208 0 0 0
201 0 0 0
203 0 0 0
204 0 0 0
205 0 0 0
206 0 0 0
209 0 0 0
210 0 0 0
211 0 0 0
212 0 0 0
214 0 0 0
215 0 0 0
207 0 0 0
213 0 0 0
216 0 0 0
217 0 0 0
218 0 0 0
221 0 0 0
226 0 0 0
227 0 0 0
229 0 0 0
219 0 0 0
222 0 0 0
224 0 0 0
225 0 0 0
228 0 0 0
230 0 0 0
231 0 0 0
232 0 0 0
233 0 0 0
220 0 0 0
223 0 0 0
234 0 0 0
235 0 0 0
244 0 0 0
245 0 0 0
248 0 0 0
236 0 0 0
237 0 0 0
238 0 0 0
239 0 0 0
241 0 0 0
242 0 0 0
246 0 0 0
249 0 0 0
251 0 0 0
252 0 0 0
240 0 0 0
243 0 0 0
247 0 0 0
250 0 0 0
253 0 0 0
254 0 0 0
256 0 0 0
255 0 0 0
257 0 0 0
258 0 0 0
259 0 0 0
260 0 0 0
261 0 0 0
