LAMMPS data file via write_data, version 22 Jul 2025, timestep = 14, units = metal

243 atoms
3 atom types

0 7.668573 xlo xhi
0 6.641179 ylo yhi
0 56.352273 zlo zhi
3.834287 0 0 xy xz yz

Masses

1 63.55
2 63.55
3 63.55

Atoms # atomic

1 1 7.668572858361518 1.0475208790454423e-07 0.00041224115099909147 -1 0 0
2 1 2.5561908572427376 1.0174098236288354e-07 0.0004122366218325755 0 0 0
5 1 3.834286523335298 2.213726446006933 0.0004122407503845452 0 0 0
10 1 1.2780954087351601 0.7379088953775647 2.0879444301742076 0 0 0
11 1 3.834286408735245 0.737908901656002 2.0879444317735087 0 0 0
13 1 2.55619106979091 2.9516352033500497 2.0879444375558696 0 0 0
3 1 5.112381858361396 9.872997553655557e-08 0.0004122320927618736 0 0 0
6 1 6.390477517217626 2.2137264488053146 0.0004122423082644826 0 0 0
8 1 5.112382190887661 4.427452799718526 0.00041223229141362067 0 0 0
9 1 7.66857319088762 4.427452791289903 0.00041222422866355114 0 0 0
12 1 6.3904774051700235 0.737908898516788 2.0879444309738773 0 0 0
14 1 5.112382071407895 2.951635207003892 2.087944441143642 0 0 0
15 1 7.66857307140792 2.951635199696298 2.0879444339680955 0 0 0
16 1 3.834286745913757 5.165361557326264 2.0879444281303803 0 0 0
17 1 6.390477725808433 5.165361552409642 2.087944425214898 0 0 0
4 1 8.946668523335276 2.213726451603628 0.000412243866155478 -1 0 0
7 1 10.224764172140093 4.427452795504141 0.0004122282599859982 -1 0 0
18 1 8.946668745913673 5.165361547493106 2.087944422299488 0 0 0
19 1 2.556190970211836 1.4758176749732044 4.175478692435068 0 0 0
28 1 7.668572854473296 1.107995771054648e-07 6.263013952432759 -1 0 0
29 1 2.5561908527582857 1.0776767567145547e-07 6.263013947325651 0 0 0
32 1 3.834286518496614 2.2137264446267957 6.263013945304862 0 0 0
20 1 5.112381959383098 1.4758176749626275 4.175478693998892 0 0 0
21 1 7.6685729593831375 1.4758176749838245 4.175478690871217 0 0 0
22 1 3.834286631150694 3.689544001801369 4.175478702453633 0 0 0
23 1 6.390477621874253 3.6895440032827187 4.175478705780101 0 0 0
25 1 5.112382296606636 5.903270325800593 4.175478707537866 0 0 0
26 1 7.668573296606626 5.9032703222619825 4.175478717171061 0 0 0
30 1 5.112381854473176 1.0473585692724329e-07 6.263013942218653 0 0 0
33 1 6.390477514145513 2.213726447703756 6.263013947301439 0 0 0
35 1 5.112382186735274 4.427452805433023 6.263013938175957 0 0 0
36 1 7.668573186735237 4.427452795717284 6.263013931963611 0 0 0
24 1 8.946668631150704 3.6895440047640413 4.1754787091065815 0 0 0
27 1 10.224764281090183 5.903270324031258 4.175478712354423 0 0 0
31 1 8.946668518496592 2.2137264507806513 6.263013949298027 -1 0 0
34 1 10.224764167907136 4.427452800575089 6.263013935069751 -1 0 0
37 1 1.2780953931709873 0.7379089008591829 8.35054958215042 0 0 0
38 1 3.834286393171063 0.7379089127391224 8.350549578452107 0 0 0
40 1 2.5561910573233355 2.9516352170307303 8.350549590964635 0 0 0
46 1 2.5561909077202816 1.4758176718151585 10.43808479255798 0 0 0
39 1 6.390477381341832 0.7379089067991511 8.350549580301282 0 0 0
41 1 5.1123820512604645 2.9516352178032013 8.350549597495887 0 0 0
42 1 7.6685730512605135 2.9516352162583472 8.350549584433383 0 0 0
43 1 3.8342867258303763 5.165361556797994 8.350549575748705 0 0 0
44 1 6.390477713468927 5.165361553314636 8.35054957232795 0 0 0
47 1 5.112381910336782 1.4758176794226738 10.438084790113209 0 0 0
48 1 7.668572910336816 1.475817664207635 10.438084795002752 0 0 0
49 1 3.8342865786238125 3.6895440049078596 10.438084795819462 0 0 0
50 1 6.39047757209933 3.6895440068088186 10.438084801523269 0 0 0
52 1 5.112382243031137 5.903270346392712 10.438084812290095 0 0 0
53 1 7.6685732430311875 5.903270334270756 10.438084818435373 0 0 0
45 1 8.946668725830309 5.165361549831334 8.350549568907264 0 0 0
51 1 8.946668578623779 3.6895440087097753 10.438084807227083 0 0 0
54 1 10.224764233276789 5.903270340331755 10.438084815362712 0 0 0
55 1 7.668572747732638 1.0333069527331014e-07 12.525630479132728 -1 0 0
56 1 2.5561907471338374 9.916552662107144e-08 12.525630474634545 0 0 0
59 1 3.834286411720724 2.2137264416448845 12.525630484937103 0 0 0
64 1 1.2780952301998 0.7379088858779902 14.61321410849306 0 0 0
65 1 3.8342862301998477 0.737908897037789 14.613214110192345 0 0 0
67 1 2.556190896528028 2.9516352046189547 14.613214111088736 0 0 0
57 1 5.112381747732532 9.500042055898892e-08 12.525630470136358 0 0 0
60 1 6.390477411313574 2.2137264461796065 12.525630484556755 0 0 0
62 1 5.112382083919031 4.427452791803121 12.52563047185931 0 0 0
63 1 7.668573083919009 4.427452782783746 12.525630467454398 0 0 0
66 1 6.3904772282026645 0.7379088914578806 14.613214109342707 0 0 0
68 1 5.112381897045988 2.9516352057262334 14.613214114284693 0 0 0
69 1 7.668572897046038 2.9516352035117213 14.613214107892743 0 0 0
70 1 3.834286564857563 5.1653615593677005 14.613214111847244 0 0 0
71 1 6.3904775631411646 5.165361547140665 14.613214114405888 0 0 0
58 1 8.946668411720685 2.2137264507143106 12.525630484176421 -1 0 0
61 1 10.224764059249935 4.427452787293416 12.525630469656834 -1 0 0
72 1 8.946668564857465 5.1653615349136395 14.61321411696457 0 0 0
73 1 2.556190704221492 1.475817659101289 16.697897480392616 0 0 0
82 1 1.2780952303510498 0.7379088863247928 18.78258135756497 0 0 0
83 1 3.834286230351097 0.7379088976453878 18.782581357224856 0 0 0
85 1 2.5561908967744156 2.9516352040309273 18.78258135796287 0 0 0
74 1 5.112381701043443 1.4758176666652154 16.697897480013626 0 0 0
75 1 7.66857270104352 1.4758176515373094 16.69789748077159 0 0 0
76 1 3.8342863681639106 3.689544012130318 16.697897479273877 0 0 0
77 1 6.3904773798158025 3.6895440152265238 16.697897480016845 0 0 0
79 1 5.112382043481218 5.903270326048438 16.697897481129772 0 0 0
80 1 7.668573043481268 5.90327031165627 16.697897481825585 0 0 0
84 1 6.39047722812442 0.7379088919850846 18.78258135739491 0 0 0
86 1 5.112381897037279 2.951635205161501 18.782581355477838 0 0 0
87 1 7.6685728970373255 2.951635202900398 18.782581360447928 0 0 0
88 1 3.8342865650183584 5.165361559310468 18.782581355692987 0 0 0
89 1 6.39047756306222 5.165361547200546 18.782581353162126 0 0 0
78 1 8.94666836816382 3.689544018322611 16.69789748075982 0 0 0
81 1 10.224764009261484 5.903270318852397 16.697897481477675 0 0 0
90 1 8.946668565018259 5.165361535090633 18.782581350631233 0 0 0
91 1 7.668572748022754 1.0324275788552003e-07 20.87016526088465 -1 0 0
92 1 2.5561907471343766 9.828217086487591e-08 20.87016526366144 0 0 0
95 1 3.8342864110255244 2.2137264399756127 20.870165251499028 0 0 0
93 1 5.112381748022648 9.332164597305364e-08 20.870165266438246 0 0 0
96 1 6.390477413273645 2.2137264449739815 20.870165253229434 0 0 0
98 1 5.112382084725827 4.427452794260752 20.870165263898055 0 0 0
99 1 7.668573084725805 4.427452783937147 20.870165265801646 0 0 0
94 1 8.946668411025486 2.2137264499723326 20.87016525495982 -1 0 0
97 1 10.224764058169015 4.42745278909893 20.87016526484987 -1 0 0
100 1 2.5561909099090068 1.4758176751155507 22.95771113971519 0 0 0
109 1 1.2780953966960078 0.7379088950493643 25.045246904869945 0 0 0
110 1 3.834286396696065 0.737908907730552 25.04524690893501 0 0 0
112 1 2.556191061223435 2.9516352112521655 25.045246894391063 0 0 0
101 1 5.112381910424732 1.4758176827142429 22.95771114368525 0 0 0
102 1 7.668572910424762 1.4758176675168493 22.957711135745114 0 0 0
103 1 3.8342865807023196 3.689544002486859 22.957711142161806 0 0 0
104 1 6.390477570126785 3.6895440035569003 22.957711135700794 0 0 0
106 1 5.112382243171955 5.90327034165322 22.957711122600188 0 0 0
107 1 7.668573243172005 5.903270334393405 22.957711117833487 0 0 0
111 1 6.390477386787911 0.7379089013899671 25.04524690690247 0 0 0
113 1 5.112382055588601 2.951635212208673 25.045246888084662 0 0 0
114 1 7.668573055588649 2.9516352102957204 25.04524690069749 0 0 0
115 1 3.834286730371639 5.165361558585742 25.045246907264268 0 0 0
116 1 6.390477717363904 5.165361554491181 25.045246909660616 0 0 0
105 1 8.946668580702292 3.6895440046269434 22.957711129239787 0 0 0
108 1 10.224764235569268 5.903270338023329 22.95771112021685 0 0 0
117 1 8.946668730371577 5.165361550396649 25.0452469120569 0 0 0
118 1 7.668572870020387 9.956652612972146e-08 27.132783642874863 -1 0 0
119 1 2.5561908756551333 9.861001952706888e-08 27.13278364918134 0 0 0
122 1 3.834286538645838 2.213726439168185 27.13278364439068 0 0 0
127 1 2.5561910161257906 1.4758176619766123 29.22031943635353 0 0 0
120 1 5.112381870020281 9.765358541276113e-08 27.13278365548768 0 0 0
123 1 6.390477528737649 2.2137264455088213 27.132783646423224 0 0 0
125 1 5.112382202162032 4.427452792842396 27.132783659296393 0 0 0
126 1 7.668573202162002 4.4274527846533225 27.13278366408896 0 0 0
128 1 5.112382016641617 1.4758176543779538 29.22031943238346 0 0 0
129 1 7.668573016641613 1.4758176695753036 29.22031944032365 0 0 0
130 1 3.8342866821718244 3.6895440000729995 29.220319423253006 0 0 0
131 1 6.390477674569096 3.6895439964430583 29.220319420869643 0 0 0
133 1 5.112382348650506 5.903270323814502 29.220319423316123 0 0 0
134 1 7.668573348650481 5.903270325954588 29.22031941039418 0 0 0
121 1 8.946668538645815 2.213726451849389 27.132783648455767 -1 0 0
124 1 10.224764189154277 4.4274527887478055 27.13278366169271 -1 0 0
132 1 8.946668682171865 3.6895439928131566 29.220319418486323 0 0 0
135 1 10.22476433807497 5.9032703248844856 29.220319416855208 0 0 0
136 1 1.2780955155944074 0.7379088967194746 31.307865288743447 0 0 0
137 1 3.834286515594459 0.7379089067161578 31.307865292204244 0 0 0
139 1 2.5561911803384474 2.9516352109011184 31.307865289285466 0 0 0
145 1 7.668573032423089 1.0914547500809208e-07 33.39544919655715 -1 0 0
146 1 2.556191032160159 1.0801485559923795e-07 33.39544919904224 0 0 0
149 1 3.8342867002455976 2.2137264471391545 33.39544920344503 0 0 0
138 1 6.390477517842617 0.7379089017178296 31.307865290473814 0 0 0
140 1 5.112382181226762 2.951635215861651 31.307865286508694 0 0 0
141 1 7.668573181226765 2.951635205940493 31.307865292062246 0 0 0
142 1 3.8342868583408185 5.165361560187781 31.307865299954067 0 0 0
143 1 6.390477831784067 5.165361555025995 31.307865300905885 0 0 0
147 1 5.112382032422986 1.0688433883494477e-07 33.39544920152728 0 0 0
150 1 6.390477698018868 2.2137264527994693 33.39544920327499 0 0 0
152 1 5.11238235987224 4.427452808078959 33.395449201005086 0 0 0
153 1 7.668573359872186 4.427452783859166 33.39544919594336 0 0 0
144 1 8.946668858340807 5.1653615498642 31.307865301857632 0 0 0
148 1 8.946668700245548 2.213726458459714 33.39544920310497 -1 0 0
151 1 10.224764357916083 4.427452795969053 33.39544919847426 -1 0 0
154 1 2.556191227627034 1.4758176811475943 35.4801330724339 0 0 0
163 1 7.6685730325874095 1.0964939438491745e-07 37.564816449219556 -1 0 0
164 1 2.556191032069386 1.0854205570689716e-07 37.56481644602351 0 0 0
167 1 3.834286700248725 2.213726447279403 37.56481644011066 0 0 0
155 1 5.112382224449089 1.475817673583672 35.480133072812905 0 0 0
156 1 7.668573224449096 1.4758176887115892 35.48013307205491 0 0 0
157 1 3.8342868969270425 3.6895439919696775 35.48013307354687 0 0 0
158 1 6.390477862707259 3.6895439847735814 35.48013307389475 0 0 0
160 1 5.112382548083522 5.9032703378025255 35.48013307277595 0 0 0
161 1 7.6685735480834705 5.903270343994834 35.480133074261914 0 0 0
165 1 5.1123820325873 1.0743483174268813e-07 37.56481644282749 0 0 0
168 1 6.39047769825156 2.213726452859317 37.5648164409603 0 0 0
170 1 5.112382359874861 4.427452807608115 37.56481644171878 0 0 0
171 1 7.668573359874804 4.427452783154073 37.56481644683611 0 0 0
159 1 8.946668896927111 3.6895439775774874 35.48013307424264 0 0 0
162 1 10.224764559735346 5.903270340898622 35.48013307351893 0 0 0
166 1 8.946668700248676 2.213726458439165 37.564816441809946 -1 0 0
169 1 10.224764358158456 4.427452795381077 37.56481644427741 -1 0 0
172 1 1.2780955166716002 0.7379088962997341 39.65240008079898 0 0 0
173 1 3.834286516671653 0.7379089053691331 39.65240008003833 0 0 0
175 1 2.556191180715458 2.951635212706583 39.652400085396465 0 0 0
174 1 6.390477516264598 0.737908900834445 39.652400080418694 0 0 0
176 1 5.112382181314231 2.9516352168716917 39.65240008989468 0 0 0
177 1 7.668573181314239 2.9516352085413824 39.65240008089824 0 0 0
178 1 3.8342868578879625 5.165361558330127 39.65240007269894 0 0 0
179 1 6.390477833218921 5.165361553820426 39.652400070496455 0 0 0
180 1 8.946668857887957 5.165361549310718 39.65240006829406 0 0 0
181 1 2.556191015565597 1.4758176596681973 41.739945741288146 0 0 0
190 1 7.668572874019886 9.39733609420237e-08 43.82748098304849 -1 0 0
191 1 2.556190880082622 9.320090444373598e-08 43.82748097651719 0 0 0
194 1 3.8342865435906734 2.2137264407453587 43.827480986339715 0 0 0
182 1 5.112382018182194 1.4758176520607116 41.739945743732946 0 0 0
183 1 7.668573018182187 1.4758176672757153 41.73994573884331 0 0 0
184 1 3.8342866836765914 3.689543999252158 41.739945752054965 0 0 0
185 1 6.390477673922208 3.689543993191157 41.739945755127586 0 0 0
187 1 5.112382348017087 5.9032703262839465 41.739945758389126 0 0 0
188 1 7.66857334801707 5.903270330085849 41.73994576979672 0 0 0
192 1 5.112381874019773 9.242853727470014e-08 43.827480969986 0 0 0
195 1 6.3904775317614195 2.213726446685343 43.82748098449053 0 0 0
197 1 5.112382206184744 4.4274527864525615 43.82748096927463 0 0 0
198 1 7.668573206184712 4.4274527794859075 43.827480962433214 0 0 0
186 1 8.946668683676643 3.689543987130209 41.73994575820019 0 0 0
189 1 10.224764341492566 5.90327032818483 41.73994576409287 0 0 0
193 1 8.946668543590654 2.2137264526252594 43.827480982641355 -1 0 0
196 1 10.224764193823363 4.427452782969171 43.82748096585387 -1 0 0
199 1 1.278095413267476 0.7379088891554028 45.91501660653189 0 0 0
200 1 3.8342864132675465 0.7379088953092681 45.91501661052509 0 0 0
202 1 2.5561910740090945 2.9516351994248557 45.91501662078442 0 0 0
208 1 2.5561909717224434 1.4758176759687862 48.00255184090397 0 0 0
201 1 6.3904774089164285 0.7379088922323499 45.91501660852849 0 0 0
203 1 5.11238207572402 2.951635202456741 45.91501662589147 0 0 0
204 1 7.668573075724042 2.951635196393035 45.915016615677345 0 0 0
205 1 3.834286749902396 5.165361557154137 45.91501661165898 0 0 0
206 1 6.39047773107424 5.165361552296228 45.91501660855278 0 0 0
209 1 5.112381960893679 1.4758176759794424 48.00255183934015 0 0 0
210 1 7.6685729608937105 1.4758176759581705 48.002551842467795 0 0 0
211 1 3.834286634629645 3.689543998486554 48.002551842661646 0 0 0
212 1 6.390477619113123 3.6895439967172523 48.00255184747825 0 0 0
214 1 5.112382295982477 5.903270323545399 48.00255185749688 0 0 0
215 1 7.6685732959824655 5.903270326508112 48.0025518641499 0 0 0
207 1 8.946668749902317 5.165361547438382 45.91501660544665 0 0 0
213 1 8.94666863462968 3.6895439949479383 48.00255185229487 0 0 0
216 1 10.22476428670606 5.903270325026713 48.00255186082336 0 0 0
217 1 7.668572858688822 1.0513701400731172e-07 50.09008613230669 -1 0 0
218 1 2.556190857071808 1.0148317236267482e-07 50.090086128718866 0 0 0
221 1 3.8342865226424716 2.2137264444511247 50.090086133678106 0 0 0
226 1 1.278095409743556 0.7379088954606072 52.17761831433115 0 0 0
227 1 3.8342864097436404 0.7379089010572755 52.17761831744693 0 0 0
229 1 2.5561910702747985 2.9516352044958327 52.17761832425083 0 0 0
219 1 5.1123818586887015 9.782942077755738e-08 50.09008612513116 0 0 0
222 1 6.3904775190772325 2.2137264475903837 50.09008613447777 0 0 0
224 1 5.112382191490983 4.4274528015664885 50.090086125052345 0 0 0
225 1 7.668573191490953 4.427452791733367 50.09008611922147 0 0 0
228 1 6.390477403625855 0.7379088982589468 52.177618315889056 0 0 0
230 1 5.112382071393554 2.9516352075069094 52.17761832877993 0 0 0
231 1 7.668573071393583 2.951635201484852 52.17761831972172 0 0 0
232 1 3.8342867456100076 5.165361555408999 52.17761831423399 0 0 0
233 1 6.390477726862446 5.165361551194644 52.1776183102026 0 0 0
220 1 8.946668522642454 2.2137264507295797 50.09008613527744 -1 0 0
223 1 10.224764171385667 4.427452796649855 50.09008612213686 -1 0 0
234 1 8.946668745609918 5.165361546980374 52.177618306171254 0 0 0
235 1 2.5561909704797907 1.4758176733820556 54.265151767152354 0 0 0
236 1 5.112381960423881 1.4758176733820736 54.26515176715235 0 0 0
237 1 7.668572960423916 1.4758176733820685 54.26515176715237 0 0 0
238 1 3.834286632810824 3.689544000563467 54.26515177470308 0 0 0
239 1 6.390477620738359 3.689544000000039 54.26515177765652 0 0 0
241 1 5.112382296119451 5.903270327181347 54.26515178520728 0 0 0
242 1 7.668573296119442 5.903270326054471 54.26515179111419 0 0 0
240 1 8.946668632810852 3.6895439994365855 54.26515178060996 0 0 0
243 1 10.224764284046952 5.903270326617875 54.265151788160715 0 0 0

Velocities

1 0 0 0
2 0 0 0
5 0 0 0
10 0 0 0
11 0 0 0
13 0 0 0
3 0 0 0
6 0 0 0
8 0 0 0
9 0 0 0
12 0 0 0
14 0 0 0
15 0 0 0
16 0 0 0
17 0 0 0
4 0 0 0
7 0 0 0
18 0 0 0
19 0 0 0
28 0 0 0
29 0 0 0
32 0 0 0
20 0 0 0
21 0 0 0
22 0 0 0
23 0 0 0
25 0 0 0
26 0 0 0
30 0 0 0
33 0 0 0
35 0 0 0
36 0 0 0
24 0 0 0
27 0 0 0
31 0 0 0
34 0 0 0
37 0 0 0
38 0 0 0
40 0 0 0
46 0 0 0
39 0 0 0
41 0 0 0
42 0 0 0
43 0 0 0
44 0 0 0
47 0 0 0
48 0 0 0
49 0 0 0
50 0 0 0
52 0 0 0
53 0 0 0
45 0 0 0
51 0 0 0
54 0 0 0
55 0 0 0
56 0 0 0
59 0 0 0
64 0 0 0
65 0 0 0
67 0 0 0
57 0 0 0
60 0 0 0
62 0 0 0
63 0 0 0
66 0 0 0
68 0 0 0
69 0 0 0
70 0 0 0
71 0 0 0
58 0 0 0
61 0 0 0
72 0 0 0
73 0 0 0
82 0 0 0
83 0 0 0
85 0 0 0
74 0 0 0
75 0 0 0
76 0 0 0
77 0 0 0
79 0 0 0
80 0 0 0
84 0 0 0
86 0 0 0
87 0 0 0
88 0 0 0
89 0 0 0
78 0 0 0
81 0 0 0
90 0 0 0
91 0 0 0
92 0 0 0
95 0 0 0
93 0 0 0
96 0 0 0
98 0 0 0
99 0 0 0
94 0 0 0
97 0 0 0
100 0 0 0
109 0 0 0
110 0 0 0
112 0 0 0
101 0 0 0
102 0 0 0
103 0 0 0
104 0 0 0
106 0 0 0
107 0 0 0
111 0 0 0
113 0 0 0
114 0 0 0
115 0 0 0
116 0 0 0
105 0 0 0
108 0 0 0
117 0 0 0
118 0 0 0
119 0 0 0
122 0 0 0
127 0 0 0
120 0 0 0
123 0 0 0
125 0 0 0
126 0 0 0
128 0 0 0
129 0 0 0
130 0 0 0
131 0 0 0
133 0 0 0
134 0 0 0
121 0 0 0
124 0 0 0
132 0 0 0
135 0 0 0
136 0 0 0
137 0 0 0
139 0 0 0
145 0 0 0
146 0 0 0
149 0 0 0
138 0 0 0
140 0 0 0
141 0 0 0
142 0 0 0
143 0 0 0
147 0 0 0
150 0 0 0
152 0 0 0
153 0 0 0
144 0 0 0
148 0 0 0
151 0 0 0
154 0 0 0
163 0 0 0
164 0 0 0
167 0 0 0
155 0 0 0
156 0 0 0
157 0 0 0
158 0 0 0
160 0 0 0
161 0 0 0
165 0 0 0
168 0 0 0
170 0 0 0
171 0 0 0
159 0 0 0
162 0 0 0
166 0 0 0
169 0 0 0
172 0 0 0
173 0 0 0
175 0 0 0
174 0 0 0
176 0 0 0
177 0 0 0
178 0 0 0
179 0 0 0
180 0 0 0
181 0 0 0
190 0 0 0
191 0 0 0
194 0 0 0
182 0 0 0
183 0 0 0
184 0 0 0
185 0 0 0
187 0 0 0
188 0 0 0
192 0 0 0
195 0 0 0
197 0 0 0
198 0 0 0
186 0 0 0
189 0 0 0
193 0 0 0
196 0 0 0
199 0 0 0
200 0 0 0
202 0 0 0
208 0 0 0
201 0 0 0
203 0 0 0
204 0 0 0
205 0 0 0
206 0 0 0
209 0 0 0
210 0 0 0
211 0 0 0
212 0 0 0
214 0 0 0
215 0 0 0
207 0 0 0
213 0 0 0
216 0 0 0
217 0 0 0
218 0 0 0
221 0 0 0
226 0 0 0
227 0 0 0
229 0 0 0
219 0 0 0
222 0 0 0
224 0 0 0
225 0 0 0
228 0 0 0
230 0 0 0
231 0 0 0
232 0 0 0
233 0 0 0
220 0 0 0
223 0 0 0
234 0 0 0
235 0 0 0
236 0 0 0
237 0 0 0
238 0 0 0
239 0 0 0
241 0 0 0
242 0 0 0
240 0 0 0
243 0 0 0
