LAMMPS data file via write_data, version 22 Jul 2025, timestep = 16, units = metal

288 atoms
3 atom types

0 7.668573 xlo xhi
0 6.641179 ylo yhi
0 66.787879 zlo zhi
3.834287 0 0 xy xz yz

Masses

1 63.55
2 63.55
3 63.55

Atoms # atomic

1 1 7.668572946411998 1.0470879345025747e-07 66.78548656211508 -1 0 -1
2 1 2.556190935778539 1.0836901134341493e-07 66.78548656272194 0 0 -1
5 1 3.8342866006761556 2.2137264342413365 66.78548655099647 0 0 -1
10 1 1.2780954804359899 0.7379089012214441 2.082547903689797 0 0 0
11 1 3.8342864804359946 0.7379088974066185 2.0825479095652333 0 0 0
13 1 2.5561911546582983 2.951635223079098 2.0825479173602472 0 0 0
3 1 5.1123819464120395 1.1202920712588025e-07 66.78548656332879 0 0 -1
6 1 6.390477606484648 2.2137264374838237 66.78548655511436 0 0 -1
8 1 5.112382269868155 4.427452784813608 66.78548655845088 0 0 -1
9 1 7.668573269868146 4.427452789548925 66.7854865588164 0 0 -1
12 1 6.390477485955298 0.7379088993140509 2.0825479066274863 0 0 0
14 1 5.112382157079539 2.9516352268360184 2.0825479193225562 0 0 0
15 1 7.668573157079521 2.951635219322207 2.082547915397924 0 0 0
16 1 3.8342868190787507 5.165361564326578 2.082547909864857 0 0 0
17 1 6.39047781016285 5.1653615626182185 2.082547909493076 0 0 0
4 1 8.946668600676158 2.213726440726259 66.78548655923225 -1 0 -1
7 1 10.224764257856389 4.427452787181249 66.78548655863366 -1 0 -1
18 1 8.946668819078814 5.165361560909775 2.0825479091213293 0 0 0
19 1 2.556191022048877 1.4758176820969282 4.170435560668271 0 0 0
28 1 7.668572903628733 1.0023160088893743e-07 6.258274731610035 -1 0 0
29 1 2.5561908906809827 1.0535290638962841e-07 6.258274728637121 0 0 0
32 1 3.8342865527229057 2.213726434661489 6.25827473017324 0 0 0
20 1 5.112382016179577 1.4758176873240594 4.170435560825687 0 0 0
21 1 7.668573016179564 1.47581767686986 4.170435560510863 0 0 0
22 1 3.834286697937258 3.689544004586717 4.170435552068771 0 0 0
23 1 6.39047769558374 3.6895440014269303 4.170435555316157 0 0 0
25 1 5.112382356160415 5.903270322783874 4.1704355666993935 0 0 0
26 1 7.668573356160394 5.903270337725099 4.170435562901729 0 0 0
30 1 5.112381903628762 1.1047419574329783e-07 6.258274725664167 0 0 0
33 1 6.390477564415026 2.2137264368607528 6.258274731411298 0 0 0
35 1 5.112382232032733 4.42745279151146 6.258274726203051 0 0 0
36 1 7.668573232032695 4.427452796532623 6.258274724800095 0 0 0
24 1 8.946668697937298 3.689543998267104 4.17043555856351 0 0 0
27 1 10.224764348112636 5.903270330254493 4.170435564800544 0 0 0
31 1 8.946668552722898 2.2137264390600095 6.258274732649346 -1 0 0
34 1 10.224764215799269 4.427452794022063 6.258274725501588 -1 0 0
37 1 1.278095409359773 0.7379088892711062 8.346103982775887 0 0 0
38 1 3.834286409359787 0.7379088935715632 8.346103985308945 0 0 0
40 1 2.556191077602517 2.951635204003738 8.34610398661974 0 0 0
46 1 2.5561909243298686 1.4758176688187798 10.433935359669686 0 0 0
39 1 6.390477419727096 0.7379088914213178 8.346103984042378 0 0 0
41 1 5.1123820830482405 2.9516352039439777 8.34610398932004 0 0 0
42 1 7.668573083048232 2.951635204063503 8.346103983919472 0 0 0
43 1 3.834286757496988 5.165361548411198 8.346103979459349 0 0 0
44 1 6.390477744965329 5.165361552068363 8.34610397788344 0 0 0
47 1 5.1123819222854205 1.4758176682795003 10.433935362208562 0 0 0
48 1 7.66857292228542 1.4758176693581082 10.433935357130798 0 0 0
49 1 3.834286599233898 3.6895439945183313 10.433935367703139 0 0 0
50 1 6.390477596783098 3.6895439981130407 10.433935370423447 0 0 0
52 1 5.112382256385718 5.903270314896266 10.433935373530375 0 0 0
53 1 7.668573256385709 5.9032703277190945 10.433935377867062 0 0 0
45 1 8.94666875749702 5.165361555725493 8.346103976307553 0 0 0
51 1 8.946668599233906 3.6895440017077297 10.433935373143758 0 0 0
54 1 10.224764248327302 5.903270321307696 10.433935375698717 0 0 0
55 1 7.6685727647705315 1.0124973254076165e-07 12.521766364310553 -1 0 0
56 1 2.5561907594423126 1.0428305499902623e-07 12.521766361837104 0 0 0
59 1 3.8342864238980314 2.213726443804517 12.52176636223031 0 0 0
64 1 1.278095248483297 0.737908874209128 14.609604566957932 0 0 0
65 1 3.8342862484833096 0.7379088801505932 14.609604570358417 0 0 0
67 1 2.55619090853542 2.9516351956507303 14.6096045704244 0 0 0
57 1 5.112381764770524 1.0731636581620997e-07 12.521766359363614 0 0 0
60 1 6.390477425863419 2.21372644547652 12.52176636311856 0 0 0
62 1 5.112382104775849 4.4274527792215945 12.521766352893945 0 0 0
63 1 7.668573104775836 4.427452784134061 12.52176635306214 0 0 0
66 1 6.39047725762306 0.7379088771798556 14.609604568658165 0 0 0
68 1 5.112381917141523 2.9516351986482254 14.60960457047757 0 0 0
69 1 7.668572917141513 2.9516351926532467 14.609604570371282 0 0 0
70 1 3.8342865960887385 5.165361549871544 14.609604573344198 0 0 0
71 1 6.3904775890276415 5.165361550502068 14.609604574801983 0 0 0
58 1 8.94666842389805 2.2137264471485176 12.521766364006817 -1 0 0
61 1 10.224764091348511 4.427452781677867 12.52176635297806 -1 0 0
72 1 8.946668596088747 5.165361551132615 14.609604576259777 0 0 0
73 1 2.5561907333256344 1.4758176520930035 16.69748376618843 0 0 0
82 1 7.6685725377881075 9.020994272764701e-08 18.78247093925848 -1 0 0
83 1 2.5561905317713762 9.424737588716359e-08 18.782470938343526 0 0 0
86 1 3.8342862046522823 2.213726435876259 18.782470937153782 0 0 0
74 1 5.112381734057018 1.4758176550652835 16.697483767698458 0 0 0
75 1 7.668572734057005 1.4758176491207777 16.69748376467838 0 0 0
76 1 3.8342864077443743 3.6895439800369645 16.697483766854297 0 0 0
77 1 6.3904774051223345 3.6895439791114075 16.69748376931341 0 0 0
79 1 5.112382063011689 5.903270306262384 16.69748376724957 0 0 0
80 1 7.668573063011724 5.90327031083031 16.69748376964428 0 0 0
84 1 5.112381537788097 9.828484029226369e-08 18.782470937428574 0 0 0
87 1 6.390477205052231 2.2137264342788323 18.78247093772627 0 0 0
89 1 5.112381882578388 4.4274527653558 18.78247093777108 0 0 0
90 1 7.668572882578409 4.42745276770169 18.782470937456754 0 0 0
78 1 8.946668407744369 3.689543978185849 16.69748377177252 0 0 0
81 1 10.22476405609305 5.903270308546384 16.697483768446904 0 0 0
85 1 8.946668204652296 2.2137264326813844 18.782470938298747 -1 0 0
88 1 10.224763866655646 4.427452766528798 18.782470937613915 -1 0 0
91 1 2.5561907315393273 1.4758176486249375 20.867457159127554 0 0 0
100 1 1.2780952478382148 0.7379088746370029 22.955324711075342 0 0 0
101 1 3.8342862478382287 0.7379088807175503 22.955324704584125 0 0 0
103 1 2.5561909074727653 2.951635195359013 22.95532470153382 0 0 0
92 1 5.112381734716294 1.475817651988357 20.867457159098 0 0 0
93 1 7.66857273471628 1.4758176452615759 20.867457159157127 0 0 0
94 1 3.83428640733875 3.6895439809372546 20.86745716015663 0 0 0
95 1 6.390477405330069 3.689543979320744 20.86745715706931 0 0 0
97 1 5.112382062184679 5.903270310044184 20.8674571546924 0 0 0
98 1 7.668573062184713 5.903270313229593 20.867457153541146 0 0 0
102 1 6.390477256219522 0.7379088776772702 22.95532470782974 0 0 0
104 1 5.112381916237874 2.9516351982876228 22.95532470020141 0 0 0
105 1 7.668572916237862 2.951635192430416 22.955324702866182 0 0 0
106 1 3.83428659521885 5.16536154843987 22.95532470253994 0 0 0
107 1 6.3904775879950435 5.165361549288761 22.955324700935062 0 0 0
96 1 8.946668407338743 3.6895439777042287 20.867457153982 0 0 0
99 1 10.224764057267047 5.903270311636925 20.86745715411679 0 0 0
108 1 8.946668595218863 5.165361550137677 22.955324699330173 0 0 0
109 1 7.668572760407789 9.934698934815204e-08 25.043157051363494 -1 0 0
110 1 2.556190755073544 1.0256167693443729e-07 25.043157055382263 0 0 0
113 1 3.834286420353381 2.213726444373777 25.043157053159252 0 0 0
118 1 2.556190909647931 1.4758176625714832 27.130983519506792 0 0 0
111 1 5.112381760407786 1.0577634803965181e-07 25.043157059401068 0 0 0
114 1 6.3904774208811395 2.2137264454133296 25.043157051646137 0 0 0
116 1 5.112382099991426 4.427452775719887 25.043157066746268 0 0 0
117 1 7.668573099991425 4.427452781901097 25.0431570706397 0 0 0
119 1 5.112381910815265 1.4758176611780793 27.130983515684928 0 0 0
120 1 7.668572910815259 1.4758176639649314 27.130983523328684 0 0 0
121 1 3.834286584363735 3.6895439940688393 27.130983506130327 0 0 0
122 1 6.390477586080358 3.689543998853823 27.130983503382204 0 0 0
124 1 5.112382242817001 5.903270311875546 27.130983506674518 0 0 0
125 1 7.668573242816999 5.903270321741667 27.13098349650232 0 0 0
112 1 8.9466684203534 2.2137264464528816 25.04315705013304 -1 0 0
115 1 10.224764088433101 4.4274527788105305 25.043157068692974 -1 0 0
123 1 8.946668584363726 3.6895440036387885 27.13098350063407 0 0 0
126 1 10.224764234688177 5.903270316808629 27.13098350158844 0 0 0
127 1 1.2780953813310856 0.7379088876696177 29.218812423609762 0 0 0
128 1 3.834286381331089 0.7379088954548586 29.218812421734004 0 0 0
130 1 2.556191048511104 2.951635199254432 29.218812422731318 0 0 0
136 1 7.668572859879373 1.0582239177752493e-07 31.30664250098673 -1 0 0
137 1 2.5561908480079483 1.0684868921668284e-07 31.306642501487694 0 0 0
140 1 3.8342865144856626 2.2137264408144492 31.306642499326742 0 0 0
129 1 6.390477391355202 0.7379088915622171 29.218812422671913 0 0 0
131 1 5.1123820554191814 2.9516351988338485 29.218812420815457 0 0 0
132 1 7.668573055419171 2.9516351996750108 29.218812424647144 0 0 0
133 1 3.834286730981084 5.165361545515804 29.21881242519986 0 0 0
134 1 6.390477716198258 5.165361550251731 29.2188124266936 0 0 0
138 1 5.112381859879386 1.0787499443966861e-07 31.306642501988694 0 0 0
141 1 6.390477525767167 2.2137264436777504 31.306642499273675 0 0 0
143 1 5.1123821952258925 4.4274527916004205 31.30664250180071 0 0 0
144 1 7.668573195225854 4.427452797592943 31.306642500867735 0 0 0
135 1 8.946668730981104 5.165361554987654 29.218812428187316 0 0 0
139 1 8.946668514485662 2.2137264465410325 31.306642499220633 -1 0 0
142 1 10.224764177192826 4.4274527945967215 31.306642501334203 -1 0 0
145 1 2.5561909787559056 1.4758176822499363 33.39446854892422 0 0 0
146 1 5.112381976081011 1.4758176838528738 33.394468552589665 0 0 0
147 1 7.668572976081012 1.4758176806470384 33.39446854525877 0 0 0
148 1 3.8342866553529005 3.6895439965119894 33.39446856016996 0 0 0
149 1 6.3904776482872325 3.689544000922483 33.39446855655662 0 0 0
151 1 5.112382310107298 5.903270324790937 33.39446854358951 0 0 0
152 1 7.668573310107287 5.9032703366247405 33.394468546532025 0 0 0
150 1 8.946668655352939 3.6895440053329294 33.3944685529433 0 0 0
153 1 10.224764308095896 5.903270330707834 33.394468545060775 0 0 0
154 1 1.2780954488048781 0.7379088926509183 35.482295206887706 0 0 0
155 1 3.8342864488048995 0.737908896358557 35.48229520196048 0 0 0
157 1 2.5561911144861016 2.951635216935554 35.48229519377396 0 0 0
163 1 7.668572958688316 1.0842059974646906e-07 37.570121972072855 -1 0 0
164 1 2.556190947565225 1.1499376823809267e-07 37.570121976087805 0 0 0
167 1 3.834286611037915 2.2137264496613445 37.57012198464107 0 0 0
156 1 6.390477459087703 0.7379088945047244 35.48229520442413 0 0 0
158 1 5.112382124363773 2.951635214119138 35.482295191125296 0 0 0
159 1 7.668573124363752 2.951635219751964 35.48229519642261 0 0 0
160 1 3.8342867985100932 5.165361562616677 35.482295200478426 0 0 0
161 1 6.390477786565208 5.165361565311174 35.482295200981845 0 0 0
165 1 5.112381958688326 1.2156693552802403e-07 37.57012198010274 0 0 0
168 1 6.390477616836507 2.2137264521206297 37.57012198066513 0 0 0
170 1 5.1123822887480905 4.427452790481604 37.5701219873454 0 0 0
171 1 7.668573288748044 4.427452801375295 37.570121986036646 0 0 0
162 1 8.946668798510125 5.165361568005639 35.48229520148525 0 0 0
166 1 8.946668611037927 2.213726454579909 37.57012197668923 -1 0 0
169 1 10.224764272468438 4.427452795928475 37.57012198669102 -1 0 0
172 1 2.556191112846652 1.4758176837396078 39.65795414144192 0 0 0
181 1 1.2780956315841685 0.7379089141737056 41.74582719429966 0 0 0
182 1 3.834286631584173 0.7379089108793764 41.7458271968564 0 0 0
184 1 2.5561912974064662 2.951635232695208 41.74582718879417 0 0 0
173 1 5.1123821134651015 1.4758176870385007 39.65795413993547 0 0 0
174 1 7.668573113465095 1.4758176804407839 39.657954142948405 0 0 0
175 1 3.8342867845287563 3.689544009682865 39.657954140366485 0 0 0
176 1 6.390477784372132 3.689544009407321 39.65795413624319 0 0 0
178 1 5.11238245101712 5.903270334867703 39.65795413287609 0 0 0
179 1 7.668573451017089 5.903270343643908 39.65795412807786 0 0 0
183 1 6.390477636994585 0.737908912526538 41.74582719557806 0 0 0
185 1 5.112382299389899 2.951635229437459 41.745827185645005 0 0 0
186 1 7.668573299389891 2.9516352359529447 41.745827191943334 0 0 0
187 1 3.8342869758216 5.165361570790122 41.745827199779164 0 0 0
188 1 6.390477962352739 5.165361571483626 41.745827199662834 0 0 0
177 1 8.946668784528814 3.6895440091317746 39.657954132119926 0 0 0
180 1 10.224764444127711 5.903270339255819 39.657954130477016 0 0 0
189 1 8.94666897582168 5.165361572177091 41.745827199546454 0 0 0
190 1 1.8225720190137557e-07 1.2666527286705136e-07 43.83081120605023 0 0 0
191 1 2.556191162281928 1.2840049690546703e-07 43.83081120588109 0 0 0
194 1 3.8342868280356237 2.2137264467292987 43.8308112036848 0 0 0
199 1 1.2780956315219025 0.73790891419514 45.915799563105125 0 0 0
200 1 3.8342866315219055 0.7379089109221209 45.91579956256494 0 0 0
202 1 2.556191297298578 2.9516352324073 45.9157995714575 0 0 0
192 1 5.112382182257225 1.301357101811597e-07 43.83081120571195 0 0 0
195 1 6.3904778399234825 2.21372645350256 43.830811204351086 0 0 0
197 1 5.112382504327078 4.427452805886303 43.83081120350752 0 0 0
198 1 7.668573504327018 4.427452816700489 43.83081120449236 0 0 0
201 1 6.390477636840567 0.7379089125586265 45.915799562835005 0 0 0
203 1 5.112382299289389 2.951635229099133 45.91579957542474 0 0 0
204 1 7.668573299289387 2.951635235715461 45.91579956749024 0 0 0
205 1 3.8342869757196416 5.165361570968925 45.915799561451266 0 0 0
206 1 6.39047796228874 5.165361571663405 45.91579956196565 0 0 0
193 1 1.2780958280356334 2.213726460275802 43.83081120501737 0 0 0
196 1 2.5561914920061297 4.427452811293405 43.83081120399995 0 0 0
207 1 8.946668975719714 5.165361572357844 45.915799562480075 0 0 0
208 1 2.5561911131758484 1.4758176852111695 48.00367503955536 0 0 0
217 1 7.668572957318656 1.0853798672492164e-07 50.09151442614047 -1 0 0
218 1 2.556190946119816 1.1487685925635756e-07 50.09151442316919 0 0 0
221 1 3.8342866093428736 2.213726448001566 50.09151441505992 0 0 0
209 1 5.112382112920456 1.4758176889339596 48.00367504014686 0 0 0
210 1 7.668573112920452 1.475817681488451 48.00367503896384 0 0 0
211 1 3.8342867846908817 3.689544009166524 48.00367503765499 0 0 0
212 1 6.390477783260178 3.6895440091151634 48.003675041676644 0 0 0
214 1 5.11238245058332 5.903270333274052 48.00367504595777 0 0 0
215 1 7.668573450583292 5.9032703425486 48.00367504919653 0 0 0
219 1 5.112381957318665 1.2121573235107533e-07 50.09151442019792 0 0 0
222 1 6.390477616425617 2.2137264504437053 50.0915144182647 0 0 0
224 1 5.112382287547439 4.427452791685272 50.091514415403516 0 0 0
225 1 7.668573287547391 4.4274528018156225 50.09151441720389 0 0 0
213 1 8.946668784690939 3.6895440090638023 48.00367504569825 0 0 0
216 1 10.224764443943293 5.903270337911336 48.00367504757712 0 0 0
220 1 8.946668609342876 2.2137264528858314 50.091514421469434 -1 0 0
223 1 10.224764271008354 4.427452796750477 50.09151441630372 -1 0 0
226 1 1.2780954435124898 0.737908890656722 52.179343122006465 0 0 0
227 1 3.8342864435125077 0.7379088950668617 52.179343126463806 0 0 0
229 1 2.5561911082722752 2.9516352164874404 52.17934313326547 0 0 0
235 1 2.5561909644104626 1.4758176776492724 54.267169375424956 0 0 0
228 1 6.390477452896226 0.7379088928617782 52.17934312423509 0 0 0
230 1 5.11238211834677 2.951635213031456 52.17934313586426 0 0 0
231 1 7.668573118346756 2.95163521994342 52.17934313066667 0 0 0
232 1 3.834286792557416 5.165361560535117 52.17934312713999 0 0 0
233 1 6.390477780246368 5.165361562917476 52.179343127593604 0 0 0
236 1 5.11238195878428 1.4758176787755866 54.267169373298636 0 0 0
237 1 7.668572958784278 1.4758176765229913 54.26716937755128 0 0 0
238 1 3.8342866371924407 3.6895439955972846 54.26716937364071 0 0 0
239 1 6.390477629881561 3.6895440012695015 54.2671693749233 0 0 0
241 1 5.112382292302435 5.903270321513069 54.267169381801324 0 0 0
242 1 7.6685732923024235 5.903270330544239 54.26716938118038 0 0 0
234 1 8.946668792557444 5.165361565299802 52.17934312804725 0 0 0
240 1 8.946668637192474 3.6895440069416643 54.26716937620584 0 0 0
243 1 10.224764287294418 5.903270326028652 54.267169381490845 0 0 0
244 1 7.668572826928747 1.0732213128538038e-07 56.354998995358386 -1 0 0
245 1 2.55619081737058 1.0802475562284191e-07 56.35499899376125 0 0 0
248 1 3.8342864825720246 2.213726441047642 56.354998992749934 0 0 0
253 1 1.278095354590714 0.7379088908461413 58.4428277546604 0 0 0
254 1 3.834286354590716 0.7379088964152246 58.442827759894065 0 0 0
256 1 2.556191009371619 2.951635203701047 58.44282776354213 0 0 0
246 1 5.112381826928771 1.0872740543366719e-07 56.35499899216411 0 0 0
249 1 6.390477494091137 2.2137264427731935 56.35499899443647 0 0 0
251 1 5.112382162693056 4.427452790278129 56.35499898806727 0 0 0
252 1 7.668573162693031 4.427452794197454 56.35499898864069 0 0 0
255 1 6.390477366084529 0.737908893630678 58.442827757277215 0 0 0
257 1 5.112382021480922 2.9516351985091207 58.44282776690203 0 0 0
258 1 7.668573021480924 2.951635208892966 58.44282776018227 0 0 0
259 1 3.834286701085593 5.165361559551348 58.44282775884568 0 0 0
260 1 6.390477684145375 5.165361562115394 58.44282775804733 0 0 0
247 1 8.946668482572013 2.213726444498703 56.35499899612297 -1 0 0
250 1 10.224764146128315 4.427452792237828 56.35499898835399 -1 0 0
261 1 8.946668701085624 5.165361564679464 58.442827757248985 0 0 0
262 1 2.556190904793116 1.4758176679658006 60.53066475807632 0 0 0
271 1 7.668572766706772 1.0340394477081696e-07 62.618554385630965 -1 0 0
272 1 2.5561907643572566 1.0044694996907249e-07 62.61855438218722 0 0 0
275 1 3.8342864292189143 2.2137264422052443 62.61855437890887 0 0 0
263 1 5.112381899353129 1.4758176623942674 60.53066475739377 0 0 0
264 1 7.668572899353133 1.475817673537338 60.530664758758874 0 0 0
265 1 3.834286568240345 3.6895439918160506 60.5306647688498 0 0 0
266 1 6.390477561321726 3.689543999008712 60.530664768371324 0 0 0
268 1 5.112382224834669 5.903270321564781 60.5306647635621 0 0 0
269 1 7.668573224834658 5.903270314772502 60.53066477120647 0 0 0
273 1 5.11238176670682 9.749000171789932e-08 62.61855437874344 0 0 0
276 1 6.390477432294038 2.2137264400963526 62.618554382100825 0 0 0
278 1 5.112382106344823 4.427452775550623 62.61855437009557 0 0 0
279 1 7.6685731063448515 4.42745277294095 62.6185543670698 0 0 0
267 1 8.94666856824033 3.689544006201298 60.530664767892866 0 0 0
270 1 10.224764222332473 5.903270318168648 60.53066476738426 0 0 0
274 1 8.946668429218882 2.213726437987388 62.61855438529275 -1 0 0
277 1 10.224764098759993 4.4274527742457845 62.61855436858269 -1 0 0
280 1 1.2780953158848376 0.7379088886925548 64.70349219726131 0 0 0
281 1 3.8342863158848473 0.7379088945233373 64.70349220764932 0 0 0
283 1 2.5561909704143506 2.951635213173253 64.70349220895983 0 0 0
282 1 6.390477322135232 0.7379088916079841 64.70349220245531 0 0 0
284 1 5.112381982236415 2.951635209455451 64.70349220865943 0 0 0
285 1 7.668572982236434 2.9516352168910664 64.70349220926019 0 0 0
286 1 3.8342866606989654 5.165361560156628 64.703492211265 0 0 0
287 1 6.3904776493066535 5.165361562185538 64.70349221205387 0 0 0
288 1 8.946668660699013 5.165361564214523 64.70349221284272 0 0 0

Velocities

1 0 0 0
2 0 0 0
5 0 0 0
10 0 0 0
11 0 0 0
13 0 0 0
3 0 0 0
6 0 0 0
8 0 0 0
9 0 0 0
12 0 0 0
14 0 0 0
15 0 0 0
16 0 0 0
17 0 0 0
4 0 0 0
7 0 0 0
18 0 0 0
19 0 0 0
28 0 0 0
29 0 0 0
32 0 0 0
20 0 0 0
21 0 0 0
22 0 0 0
23 0 0 0
25 0 0 0
26 0 0 0
30 0 0 0
33 0 0 0
35 0 0 0
36 0 0 0
24 0 0 0
27 0 0 0
31 0 0 0
34 0 0 0
37 0 0 0
38 0 0 0
40 0 0 0
46 0 0 0
39 0 0 0
41 0 0 0
42 0 0 0
43 0 0 0
44 0 0 0
47 0 0 0
48 0 0 0
49 0 0 0
50 0 0 0
52 0 0 0
53 0 0 0
45 0 0 0
51 0 0 0
54 0 0 0
55 0 0 0
56 0 0 0
59 0 0 0
64 0 0 0
65 0 0 0
67 0 0 0
57 0 0 0
60 0 0 0
62 0 0 0
63 0 0 0
66 0 0 0
68 0 0 0
69 0 0 0
70 0 0 0
71 0 0 0
58 0 0 0
61 0 0 0
72 0 0 0
73 0 0 0
82 0 0 0
83 0 0 0
86 0 0 0
74 0 0 0
75 0 0 0
76 0 0 0
77 0 0 0
79 0 0 0
80 0 0 0
84 0 0 0
87 0 0 0
89 0 0 0
90 0 0 0
78 0 0 0
81 0 0 0
85 0 0 0
88 0 0 0
91 0 0 0
100 0 0 0
101 0 0 0
103 0 0 0
92 0 0 0
93 0 0 0
94 0 0 0
95 0 0 0
97 0 0 0
98 0 0 0
102 0 0 0
104 0 0 0
105 0 0 0
106 0 0 0
107 0 0 0
96 0 0 0
99 0 0 0
108 0 0 0
109 0 0 0
110 0 0 0
113 0 0 0
118 0 0 0
111 0 0 0
114 0 0 0
116 0 0 0
117 0 0 0
119 0 0 0
120 0 0 0
121 0 0 0
122 0 0 0
124 0 0 0
125 0 0 0
112 0 0 0
115 0 0 0
123 0 0 0
126 0 0 0
127 0 0 0
128 0 0 0
130 0 0 0
136 0 0 0
137 0 0 0
140 0 0 0
129 0 0 0
131 0 0 0
132 0 0 0
133 0 0 0
134 0 0 0
138 0 0 0
141 0 0 0
143 0 0 0
144 0 0 0
135 0 0 0
139 0 0 0
142 0 0 0
145 0 0 0
146 0 0 0
147 0 0 0
148 0 0 0
149 0 0 0
151 0 0 0
152 0 0 0
150 0 0 0
153 0 0 0
154 0 0 0
155 0 0 0
157 0 0 0
163 0 0 0
164 0 0 0
167 0 0 0
156 0 0 0
158 0 0 0
159 0 0 0
160 0 0 0
161 0 0 0
165 0 0 0
168 0 0 0
170 0 0 0
171 0 0 0
162 0 0 0
166 0 0 0
169 0 0 0
172 0 0 0
181 0 0 0
182 0 0 0
184 0 0 0
173 0 0 0
174 0 0 0
175 0 0 0
176 0 0 0
178 0 0 0
179 0 0 0
183 0 0 0
185 0 0 0
186 0 0 0
187 0 0 0
188 0 0 0
177 0 0 0
180 0 0 0
189 0 0 0
190 0 0 0
191 0 0 0
194 0 0 0
199 0 0 0
200 0 0 0
202 0 0 0
192 0 0 0
195 0 0 0
197 0 0 0
198 0 0 0
201 0 0 0
203 0 0 0
204 0 0 0
205 0 0 0
206 0 0 0
193 0 0 0
196 0 0 0
207 0 0 0
208 0 0 0
217 0 0 0
218 0 0 0
221 0 0 0
209 0 0 0
210 0 0 0
211 0 0 0
212 0 0 0
214 0 0 0
215 0 0 0
219 0 0 0
222 0 0 0
224 0 0 0
225 0 0 0
213 0 0 0
216 0 0 0
220 0 0 0
223 0 0 0
226 0 0 0
227 0 0 0
229 0 0 0
235 0 0 0
228 0 0 0
230 0 0 0
231 0 0 0
232 0 0 0
233 0 0 0
236 0 0 0
237 0 0 0
238 0 0 0
239 0 0 0
241 0 0 0
242 0 0 0
234 0 0 0
240 0 0 0
243 0 0 0
244 0 0 0
245 0 0 0
248 0 0 0
253 0 0 0
254 0 0 0
256 0 0 0
246 0 0 0
249 0 0 0
251 0 0 0
252 0 0 0
255 0 0 0
257 0 0 0
258 0 0 0
259 0 0 0
260 0 0 0
247 0 0 0
250 0 0 0
261 0 0 0
262 0 0 0
271 0 0 0
272 0 0 0
275 0 0 0
263 0 0 0
264 0 0 0
265 0 0 0
266 0 0 0
268 0 0 0
269 0 0 0
273 0 0 0
276 0 0 0
278 0 0 0
279 0 0 0
267 0 0 0
270 0 0 0
274 0 0 0
277 0 0 0
280 0 0 0
281 0 0 0
283 0 0 0
282 0 0 0
284 0 0 0
285 0 0 0
286 0 0 0
287 0 0 0
288 0 0 0
