LAMMPS data file via write_data, version 22 Jul 2025, timestep = 12, units = metal

216 atoms
3 atom types

0 7.668573 xlo xhi
0 6.641179 ylo yhi
0 50.090909 zlo zhi
3.834287 0 0 xy xz yz

Masses

1 63.55
2 63.55
3 63.55

Atoms # atomic

1 1 7.668572930116935 1.3096337655831088e-07 50.08870232682272 -1 0 -1
2 1 2.5561909361169595 1.2751156903284953e-07 50.08870232615788 0 0 -1
5 1 3.8342866123752866 2.213726463294464 50.08870233341203 0 0 -1
10 1 1.2780954767968573 0.7379088823171216 2.0829787541225984 0 0 0
11 1 3.8342864767967915 0.7379088891777559 2.0829787539231552 0 0 0
13 1 2.5561911372171346 2.951635228609692 2.08297874572498 0 0 0
3 1 5.1123819301168565 1.2405994929056363e-07 50.0887023254931 0 0 -1
6 1 6.390477601094011 2.2137264617808565 50.088702330792515 0 0 -1
8 1 5.112382276811706 4.4274527915623505 50.088702325988926 0 0 -1
9 1 7.66857327681174 4.4274527747832915 50.088702323009194 0 0 -1
12 1 6.390477472464022 0.7379088857474316 2.0829787540229177 0 0 0
14 1 5.112382137948794 2.9516352275994007 2.0829787430329767 0 0 0
15 1 7.668573137948831 2.9516352296197894 2.082978748416998 0 0 0
16 1 3.834286806782879 5.165361557305858 2.0829787561564146 0 0 0
17 1 6.39047781613082 5.165361557346136 2.0829787560637927 0 0 0
4 1 8.946668612375387 2.2137264602673263 50.08870232817299 -1 0 -1
7 1 10.224764284264339 4.427452783172975 50.08870232449908 -1 0 -1
18 1 8.946668806782823 5.1653615573865475 2.0829787559712063 0 0 0
19 1 2.5561910091598206 1.4758176609492288 4.171099213913692 0 0 0
28 1 7.66857285645097 1.2066265490628458e-07 6.259170031820857 -1 0 0
29 1 2.556190863198076 1.1297086359033135e-07 6.259170038210591 0 0 0
32 1 3.83428653763454 2.213726443562691 6.259170039663082 0 0 0
20 1 5.112382016350206 1.4758176568146928 4.171099213276138 0 0 0
21 1 7.668573016350235 1.4758176650837256 4.1710992145513135 0 0 0
22 1 3.8342866653788037 3.689543997052281 4.171099216858951 0 0 0
23 1 6.390477662782404 3.6895439985568514 4.171099215358986 0 0 0
25 1 5.112382339844657 5.903270343125442 4.171099207223607 0 0 0
26 1 7.66857333984464 5.903270333819529 4.171099205185309 0 0 0
30 1 5.112381856450933 1.0527910028129243e-07 6.259170044600352 0 0 0
33 1 6.390477528336142 2.213726444715475 6.259170038961243 0 0 0
35 1 5.112382187611487 4.427452781270359 6.259170048877156 0 0 0
36 1 7.668573187611495 4.4274527637681915 6.2591700453846935 0 0 0
24 1 8.946668665378802 3.6895440000615314 4.171099213859045 0 0 0
27 1 10.224764348476237 5.90327033847252 4.171099206204506 0 0 0
31 1 8.946668537634586 2.2137264458682853 6.259170038259413 -1 0 0
34 1 10.224764197166454 4.427452772519333 6.259170047130963 -1 0 0
37 1 1.2780953757840292 0.7379088826267111 8.347230335782287 0 0 0
38 1 3.834286375783966 0.7379088860419222 8.347230330167234 0 0 0
40 1 2.5561910484560544 2.9516352245994333 8.347230320993672 0 0 0
46 1 2.5561908686824943 1.4758176542722194 10.435301447474632 0 0 0
39 1 6.390477363843866 0.7379088843343194 8.34723033297479 0 0 0
41 1 5.112382039315015 2.951635232456866 8.347230315018246 0 0 0
42 1 7.668573039315047 2.951635216741895 8.347230326969079 0 0 0
43 1 3.8342867020790834 5.16536155640391 8.347230330608559 0 0 0
44 1 6.390477713110813 5.165361548527144 8.34723032646738 0 0 0
47 1 5.112381873603211 1.4758176592883332 10.435301449098116 0 0 0
48 1 7.668572873603228 1.4758176492560986 10.435301445851168 0 0 0
49 1 3.834286538380984 3.689543994092034 10.435301448122393 0 0 0
50 1 6.390477544224742 3.6895439897063897 10.4353014449282 0 0 0
52 1 5.112382215636826 5.903270331832537 10.435301439097877 0 0 0
53 1 7.668573215636792 5.9032703328231415 10.4353014340978 0 0 0
45 1 8.946668702079066 5.165361540650435 8.347230322326249 0 0 0
51 1 8.946668538380985 3.6895439853208356 10.43530144173404 0 0 0
54 1 10.22476421576495 5.903270332327873 10.435301436597864 0 0 0
55 1 7.6685726968240076 1.0710421574210124e-07 12.523409996393289 -1 0 0
56 1 2.5561906996268693 1.0202334431624607e-07 12.523409997275655 0 0 0
59 1 3.834286372345469 2.213726432181299 12.523409995060486 0 0 0
64 1 1.2780951674922614 0.7379088714590941 14.6086377638663 0 0 0
65 1 3.834286167492171 0.737908859273807 14.608637764924273 0 0 0
67 1 2.5561908398354256 2.951635209809764 14.608637765366325 0 0 0
57 1 5.1123816968239515 9.694254864866271e-08 12.523409998158023 0 0 0
60 1 6.390477364524205 2.2137264364072826 12.523409996286246 0 0 0
62 1 5.112382030074717 4.427452768113195 12.523410002444853 0 0 0
63 1 7.668573030074699 4.4274527613237495 12.523409997269882 0 0 0
66 1 6.390477151229415 0.7379088653664017 14.60863776439528 0 0 0
68 1 5.112381828680751 2.9516352158137162 14.608637765474906 0 0 0
69 1 7.668572828680761 2.951635203805583 14.608637765257733 0 0 0
70 1 3.8342864877917346 5.165361541973445 14.608637766039639 0 0 0
71 1 6.390477496458169 5.165361529323908 14.608637766576019 0 0 0
58 1 8.946668372345526 2.2137264406333204 12.523409997512026 -1 0 0
61 1 10.224764040799235 4.427452764718559 12.523409999857416 -1 0 0
72 1 8.946668487791698 5.165361516674466 14.608637767112393 0 0 0
73 1 7.668572696871134 1.094561155962033e-07 16.693867969139184 -1 0 0
74 1 2.5561906987283964 1.0523312086469945e-07 16.693867968536324 0 0 0
77 1 3.8342863727442755 2.2137264323242802 16.693867974009862 0 0 0
82 1 2.5561908674285765 1.4758176523958972 18.781970725510742 0 0 0
75 1 5.112381696871085 1.0101020282465286e-07 16.69386796793348 0 0 0
78 1 6.390477362913169 2.2137264357149955 16.693867972421184 0 0 0
80 1 5.112382028887403 4.427452764987877 16.69386796546582 0 0 0
81 1 7.668573028887385 4.427452758776503 16.6938679698518 0 0 0
83 1 5.1123818714530405 1.4758176572476636 18.7819707242071 0 0 0
84 1 7.668572871453061 1.475817647544118 18.78197072681437 0 0 0
85 1 3.8342865369974466 3.689543993747759 18.78197072286165 0 0 0
86 1 6.390477542447496 3.689543988986759 18.78197072536544 0 0 0
88 1 5.112382214451205 5.903270331286348 18.781970730006236 0 0 0
89 1 7.668573214451171 5.903270333120336 18.781970735380845 0 0 0
76 1 8.946668372744327 2.2137264391057707 16.693867970832486 -1 0 0
79 1 10.22476404244107 4.42745276188228 16.693867967658765 -1 0 0
87 1 8.946668536997452 3.689543984225844 18.78197072786919 0 0 0
90 1 10.224764213894659 5.903270332203374 18.781970732693516 0 0 0
91 1 1.278095368617702 0.7379088791511225 20.870037025226313 0 0 0
92 1 3.834286368617642 0.7379088788809639 20.870037026264377 0 0 0
94 1 2.556191040807541 2.9516352226593274 20.870037030560745 0 0 0
100 1 7.668572840965057 1.0849498605886245e-07 22.958095800053474 -1 0 0
101 1 2.556190845341361 1.0088698593425488e-07 22.95809579549588 0 0 0
104 1 3.8342865175251806 2.2137264312630047 22.958095808905757 0 0 0
93 1 6.390477355398028 0.737908879016052 20.870037025745315 0 0 0
95 1 5.1123820328642005 2.9516352315299597 20.87003703499327 0 0 0
96 1 7.6685730328642325 2.951635213788591 20.87003702612825 0 0 0
97 1 3.834286694946119 5.165361549941946 20.8700370267869 0 0 0
98 1 6.390477706672716 5.165361542508201 20.870037031043605 0 0 0
102 1 5.112381840965032 9.327901409541286e-08 22.958095790938277 0 0 0
105 1 6.390477512836605 2.213726430699476 22.958095806261607 0 0 0
107 1 5.112382170493915 4.427452774130509 22.958095796787212 0 0 0
108 1 7.66857317049392 4.427452756141586 22.95809579800179 0 0 0
99 1 8.946668694946098 5.1653615350745 20.870037035300246 0 0 0
103 1 8.946668517525204 2.2137264301360005 22.958095803617436 -1 0 0
106 1 10.224764177189746 4.427452765136104 22.95809579739445 -1 0 0
109 1 2.556190992773318 1.475817651398954 25.04615462460977 0 0 0
110 1 5.112381995982291 1.4758176517761403 25.04615462389564 0 0 0
111 1 7.6685729959823385 1.475817651021759 25.04615462532383 0 0 0
112 1 3.834286647234493 3.6895439881651453 25.046154624777387 0 0 0
113 1 6.390477646832802 3.689543986267224 25.04615462895895 0 0 0
115 1 5.112382329635693 5.9032703295180555 25.04615463501355 0 0 0
116 1 7.668573329635679 5.903270322511254 25.046154643111098 0 0 0
114 1 8.946668647234484 3.6895439843693962 25.046154633140468 0 0 0
117 1 10.224764334533088 5.903270326014704 25.046154639062266 0 0 0
118 1 1.278095493564838 0.7379088849309433 27.134223720862973 0 0 0
119 1 3.834286493564784 0.737908886524733 27.13422371194599 0 0 0
121 1 2.556191152904964 2.951635227294698 27.134223712963912 0 0 0
127 1 7.668572997745351 1.2278840634750283e-07 29.22233018275346 -1 0 0
128 1 2.5561910026222354 1.2361378361321661e-07 29.22233018311034 0 0 0
131 1 3.8342866744298183 2.213726459511883 29.222330182633744 0 0 0
120 1 6.390477490289715 0.7379088857278427 27.13422371640442 0 0 0
122 1 5.112382153173509 2.951635227239937 27.134223714653256 0 0 0
123 1 7.668573153173558 2.9516352273493554 27.134223711274522 0 0 0
124 1 3.8342868217727073 5.165361552542091 27.134223705738755 0 0 0
125 1 6.390477831981956 5.165361554261074 27.13422370812915 0 0 0
129 1 5.112381997745298 1.2443926219813278e-07 29.22233018346721 0 0 0
132 1 6.390477669464531 2.213726455361239 29.22233018124955 0 0 0
134 1 5.112382332977106 4.427452780538387 29.222330186983257 0 0 0
135 1 7.668573332977152 4.427452776921862 29.2223301959958 0 0 0
126 1 8.946668821772676 5.1653615559801604 27.134223710519482 0 0 0
130 1 8.9466686744299 2.213726451210735 29.222330179865338 -1 0 0
133 1 10.224764337923963 4.427452778730259 29.222330191489498 -1 0 0
136 1 2.5561912019525654 1.4758176516757535 31.307555778497427 0 0 0
145 1 7.668572997874289 1.225980445527823e-07 33.39278697741343 -1 0 0
146 1 2.5561910021680525 1.2324147539621722e-07 33.39278697738705 0 0 0
149 1 3.834286674103686 2.213726458979594 33.39278697610364 0 0 0
137 1 5.112382204374727 1.4758176499703373 31.30755577894229 0 0 0
138 1 7.668573204374783 1.4758176533813492 31.307555778052553 0 0 0
139 1 3.834286844007779 3.689543998167108 31.30755577877485 0 0 0
140 1 6.390477843966936 3.6895439989055125 31.30755577822738 0 0 0
142 1 5.112382525464794 5.903270340323885 31.307555776854947 0 0 0
143 1 7.668573525464833 5.903270325648321 31.307555776687696 0 0 0
147 1 5.112381997874236 1.238850041554091e-07 33.39278697736069 0 0 0
150 1 6.390477669910281 2.213726454749983 33.39278697785451 0 0 0
152 1 5.11238233294049 4.427452781728894 33.39278697399084 0 0 0
153 1 7.668573332940539 4.427452777608956 33.3927869668162 0 0 0
141 1 8.94666884400784 3.6895439996440746 31.307555777679912 0 0 0
144 1 10.224764527696735 5.90327033298627 31.307555776771316 0 0 0
148 1 8.946668674103767 2.2137264505205123 33.39278697960538 -1 0 0
151 1 10.224764337725945 4.427452779669058 33.39278697040355 -1 0 0
154 1 1.2780954933439497 0.7379088860646585 35.48088863541651 0 0 0
155 1 3.834286493343899 0.7379088884892848 35.48088864252632 0 0 0
157 1 2.5561911533038835 2.9516352261012164 35.48088863988802 0 0 0
163 1 2.556190992548493 1.4758176514150825 37.56895679863161 0 0 0
156 1 6.390477490308924 0.7379088872769769 35.480888638971464 0 0 0
158 1 5.112382152813607 2.9516352262016925 35.48088863777164 0 0 0
159 1 7.668573152813654 2.95163522600064 35.48088864200446 0 0 0
160 1 3.8342868220331296 5.165361552137758 35.480888647866614 0 0 0
161 1 6.3904778312254535 5.165361553867982 35.48088864516286 0 0 0
164 1 5.112381996112768 1.4758176511072414 37.56895679978819 0 0 0
165 1 7.668572996112817 1.475817651722923 37.56895679747509 0 0 0
166 1 3.8342866472390122 3.6895439891923067 37.56895679740698 0 0 0
167 1 6.390477646965523 3.68954398723413 37.56895679240748 0 0 0
169 1 5.112382330197397 5.903270328479665 37.568956785705815 0 0 0
170 1 7.668573330197377 5.903270321954026 37.568956776913105 0 0 0
162 1 8.946668822033095 5.165361555598312 35.480888642459156 0 0 0
168 1 8.946668647239 3.689543985276041 37.56895678740802 0 0 0
171 1 10.224764333386778 5.903270325216896 37.568956781309524 0 0 0
172 1 7.668572842040345 1.0904758572845202e-07 39.65701798980424 -1 0 0
173 1 2.5561908476954662 1.0273614498200036e-07 39.65701799489497 0 0 0
176 1 3.834286519691539 2.2137264331430013 39.65701798672638 0 0 0
181 1 1.2780953771032926 0.7379088801515197 41.745078645527904 0 0 0
182 1 3.834286377103234 0.7379088795668415 41.74507864550451 0 0 0
184 1 2.5561910495511695 2.951635227764914 41.745078640114244 0 0 0
174 1 5.112381842040325 9.642472599562505e-08 39.65701799998572 0 0 0
177 1 6.390477512922726 2.213726432996825 39.65701798777278 0 0 0
179 1 5.112382170924166 4.427452771349971 39.6570179981158 0 0 0
180 1 7.668573170924175 4.427452754654576 39.65701799522141 0 0 0
183 1 6.39047736439268 0.7379088798591814 41.74507864551624 0 0 0
185 1 5.112382042715352 2.9516352351538235 41.7450786347526 0 0 0
186 1 7.668573042715379 2.951635220375903 41.74507864547588 0 0 0
187 1 3.8342867031598917 5.165361554571766 41.74507864521972 0 0 0
188 1 6.390477715296736 5.165361546931737 41.745078642487336 0 0 0
175 1 8.946668519691565 2.2137264328507067 39.65701798881921 -1 0 0
178 1 10.22476417944973 4.427452763002332 39.65701799666865 -1 0 0
189 1 8.946668703159867 5.165361539291762 41.745078639755015 0 0 0
190 1 2.556190898062427 1.4758176605005093 43.83314969121225 0 0 0
199 1 7.668572782027596 1.1287517935671649e-07 45.92127025007909 -1 0 0
200 1 2.556190781241343 1.1414667134182133e-07 45.92127025226149 0 0 0
203 1 3.8342864536721804 2.2137264395490117 45.921270246834396 0 0 0
191 1 5.112381904704662 1.4758176653308404 43.83314969093641 0 0 0
192 1 7.668572904704681 1.4758176556701417 43.833149691488096 0 0 0
193 1 3.8342865698316793 3.68954400397502 43.83314968374458 0 0 0
194 1 6.3904775759333585 3.6895439990979586 43.833149683213826 0 0 0
196 1 5.112382249858429 5.903270337564347 43.83314968717833 0 0 0
197 1 7.6685732498584045 5.903270341464859 43.833149682123 0 0 0
201 1 5.112381782027548 1.1541820173151123e-07 45.921270254443925 0 0 0
204 1 6.3904774486434155 2.2137264428284795 45.921270247277135 0 0 0
206 1 5.112382105458474 4.42745277083635 45.92127025865026 0 0 0
207 1 7.668573105458472 4.427452771156954 45.92127025910507 0 0 0
195 1 8.946668569831681 3.6895439942209896 43.83314968268312 0 0 0
198 1 10.224764247187773 5.903270339514623 43.833149684650685 0 0 0
202 1 8.946668453672244 2.2137264461080437 45.92127024771988 -1 0 0
205 1 10.22476411537059 4.4274527709967515 45.921270258877705 -1 0 0
208 1 1.278095312294556 0.7379088734356197 48.0064513226838 0 0 0
209 1 3.8342863122944513 0.7379088696283825 48.00645131839074 0 0 0
211 1 2.556190989468047 2.9516352169938345 48.00645132039731 0 0 0
210 1 6.390477300698901 0.7379088715319237 48.00645132053731 0 0 0
212 1 5.112381984091522 2.9516352203361906 48.00645132058497 0 0 0
213 1 7.668572984091506 2.951635213651185 48.006451320209635 0 0 0
214 1 3.834286633088884 5.165361547352752 48.006451318333845 0 0 0
215 1 6.390477641313735 5.165361538996063 48.006451317705945 0 0 0
216 1 8.946668633088787 5.165361530639489 48.006451317078124 0 0 0

Velocities

1 0 0 0
2 0 0 0
5 0 0 0
10 0 0 0
11 0 0 0
13 0 0 0
3 0 0 0
6 0 0 0
8 0 0 0
9 0 0 0
12 0 0 0
14 0 0 0
15 0 0 0
16 0 0 0
17 0 0 0
4 0 0 0
7 0 0 0
18 0 0 0
19 0 0 0
28 0 0 0
29 0 0 0
32 0 0 0
20 0 0 0
21 0 0 0
22 0 0 0
23 0 0 0
25 0 0 0
26 0 0 0
30 0 0 0
33 0 0 0
35 0 0 0
36 0 0 0
24 0 0 0
27 0 0 0
31 0 0 0
34 0 0 0
37 0 0 0
38 0 0 0
40 0 0 0
46 0 0 0
39 0 0 0
41 0 0 0
42 0 0 0
43 0 0 0
44 0 0 0
47 0 0 0
48 0 0 0
49 0 0 0
50 0 0 0
52 0 0 0
53 0 0 0
45 0 0 0
51 0 0 0
54 0 0 0
55 0 0 0
56 0 0 0
59 0 0 0
64 0 0 0
65 0 0 0
67 0 0 0
57 0 0 0
60 0 0 0
62 0 0 0
63 0 0 0
66 0 0 0
68 0 0 0
69 0 0 0
70 0 0 0
71 0 0 0
58 0 0 0
61 0 0 0
72 0 0 0
73 0 0 0
74 0 0 0
77 0 0 0
82 0 0 0
75 0 0 0
78 0 0 0
80 0 0 0
81 0 0 0
83 0 0 0
84 0 0 0
85 0 0 0
86 0 0 0
88 0 0 0
89 0 0 0
76 0 0 0
79 0 0 0
87 0 0 0
90 0 0 0
91 0 0 0
92 0 0 0
94 0 0 0
100 0 0 0
101 0 0 0
104 0 0 0
93 0 0 0
95 0 0 0
96 0 0 0
97 0 0 0
98 0 0 0
102 0 0 0
105 0 0 0
107 0 0 0
108 0 0 0
99 0 0 0
103 0 0 0
106 0 0 0
109 0 0 0
110 0 0 0
111 0 0 0
112 0 0 0
113 0 0 0
115 0 0 0
116 0 0 0
114 0 0 0
117 0 0 0
118 0 0 0
119 0 0 0
121 0 0 0
127 0 0 0
128 0 0 0
131 0 0 0
120 0 0 0
122 0 0 0
123 0 0 0
124 0 0 0
125 0 0 0
129 0 0 0
132 0 0 0
134 0 0 0
135 0 0 0
126 0 0 0
130 0 0 0
133 0 0 0
136 0 0 0
145 0 0 0
146 0 0 0
149 0 0 0
137 0 0 0
138 0 0 0
139 0 0 0
140 0 0 0
142 0 0 0
143 0 0 0
147 0 0 0
150 0 0 0
152 0 0 0
153 0 0 0
141 0 0 0
144 0 0 0
148 0 0 0
151 0 0 0
154 0 0 0
155 0 0 0
157 0 0 0
163 0 0 0
156 0 0 0
158 0 0 0
159 0 0 0
160 0 0 0
161 0 0 0
164 0 0 0
165 0 0 0
166 0 0 0
167 0 0 0
169 0 0 0
170 0 0 0
162 0 0 0
168 0 0 0
171 0 0 0
172 0 0 0
173 0 0 0
176 0 0 0
181 0 0 0
182 0 0 0
184 0 0 0
174 0 0 0
177 0 0 0
179 0 0 0
180 0 0 0
183 0 0 0
185 0 0 0
186 0 0 0
187 0 0 0
188 0 0 0
175 0 0 0
178 0 0 0
189 0 0 0
190 0 0 0
199 0 0 0
200 0 0 0
203 0 0 0
191 0 0 0
192 0 0 0
193 0 0 0
194 0 0 0
196 0 0 0
197 0 0 0
201 0 0 0
204 0 0 0
206 0 0 0
207 0 0 0
195 0 0 0
198 0 0 0
202 0 0 0
205 0 0 0
208 0 0 0
209 0 0 0
211 0 0 0
210 0 0 0
212 0 0 0
213 0 0 0
214 0 0 0
215 0 0 0
216 0 0 0
