LAMMPS data file via write_data, version 22 Jul 2025, timestep = 15, units = metal

279 atoms
3 atom types

0 7.668573 xlo xhi
0 6.641179 ylo yhi
0 64.700758 zlo zhi
3.834287 0 0 xy xz yz

Masses

1 63.55
2 63.55
3 63.55

Atoms # atomic

1 1 7.668572865687605 1.0908981765820411e-07 0.00035888686984409914 -1 0 0
2 1 2.5561908676792364 1.1801560037853275e-07 0.0003588870773809057 0 0 0
5 1 3.8342865197529234 2.2137264569599457 0.0003588934886002254 0 0 0
10 1 1.2780954015446107 0.7379088818797751 2.0878398649474215 0 0 0
11 1 3.834286401544543 0.7379088830719703 2.087839856518007 0 0 0
13 1 2.5561910687653393 2.951635221152197 2.0878398523756787 0 0 0
3 1 5.112381865687499 1.2694151657713055e-07 0.000358887284880231 0 0 0
6 1 6.390477517251096 2.2137264573582467 0.00035888969139898444 0 0 0
8 1 5.112382185445657 4.427452771953398 0.00035889279170937333 0 0 0
9 1 7.668573185445656 4.42745279031478 0.0003589016712637756 0 0 0
12 1 6.390477396642729 0.7379088824758375 2.0878398607327227 0 0 0
14 1 5.112382065673065 2.951635211713084 2.0878398527631563 0 0 0
15 1 7.6685730656730735 2.9516352305913762 2.0878398519882917 0 0 0
16 1 3.834286747341997 5.16536152993274 2.087839852925268 0 0 0
17 1 6.390477748146174 5.165361539788678 2.0878398563933396 0 0 0
4 1 8.946668519753032 2.213726457756549 0.0003588858942436195 -1 0 0
7 1 10.224764186090493 4.427452781134074 0.00035889723144497706 -1 0 0
18 1 8.946668747341901 5.165361549644679 2.0878398598615058 0 0 0
19 1 2.5561909609256546 1.4758176610217946 4.175321364044039 0 0 0
28 1 7.668572861746081 1.0771370120656507e-07 6.262802825155454 -1 0 0
29 1 2.556190865678006 1.1735011283989219e-07 6.2628028230530015 0 0 0
32 1 3.8342865179570502 2.213726457616456 6.262802815052148 0 0 0
20 1 5.112381959309434 1.475817660925744 4.175321365836497 0 0 0
21 1 7.668572959309454 1.475817661117857 4.175321362251551 0 0 0
22 1 3.834286640277414 3.6895439986654606 4.1753213650696015 0 0 0
23 1 6.390477641471933 3.6895439996811743 4.175321364515746 0 0 0
25 1 5.112382279315193 5.903270338493852 4.17532135960512 0 0 0
26 1 7.668573279315181 5.903270338673903 4.175321361928282 0 0 0
30 1 5.112381861745964 1.2698665142001032e-07 6.2628028209505 0 0 0
33 1 6.390477511559188 2.21372645860266 6.2628028152088255 0 0 0
35 1 5.11238218254473 4.427452766262196 6.262802814795771 0 0 0
36 1 7.668573182544733 4.427452787123067 6.262802824944085 0 0 0
24 1 8.946668640277464 3.689544000696848 4.175321363961987 0 0 0
27 1 10.224764278481535 5.903270338583874 4.175321360766708 0 0 0
31 1 8.946668517957152 2.213726459588855 6.262802815365528 -1 0 0
34 1 10.22476418248636 4.427452776692617 6.262802819869892 -1 0 0
37 1 1.2780953877421088 0.7379088727707163 8.350284504336692 0 0 0
38 1 3.83428638774205 0.737908876064534 8.350284502622518 0 0 0
40 1 2.5561910523348366 2.9516352163726314 8.35028451404691 0 0 0
46 1 2.5561909235118248 1.475817653104189 10.43776651892292 0 0 0
39 1 6.390477383297583 0.737908874417598 8.350284503479621 0 0 0
41 1 5.11238205196781 2.9516352072499394 8.35028452021015 0 0 0
42 1 7.668573051967815 2.9516352254953513 8.350284507883726 0 0 0
43 1 3.834286734398267 5.165361531018244 8.350284503054906 0 0 0
44 1 6.39047773432649 5.165361539918689 8.350284503321891 0 0 0
47 1 5.112381919053603 1.4758176551306454 10.437766515716447 0 0 0
48 1 7.668572919053654 1.4758176510777474 10.43776652212938 0 0 0
49 1 3.8342865956683987 3.689543993607506 10.437766504094368 0 0 0
50 1 6.390477603205405 3.6895439968095567 10.437766506814508 0 0 0
52 1 5.11238223869014 5.90327032712772 10.437766523092058 0 0 0
53 1 7.668573238690108 5.90327032736875 10.437766520952266 0 0 0
45 1 8.946668734398195 5.1653615488192015 8.350284503589009 0 0 0
51 1 8.946668595668474 3.6895440000115425 10.437766509534699 0 0 0
54 1 10.224764237321795 5.903270327248231 10.43776652202216 0 0 0
55 1 7.668572779358244 1.0603991163365514e-07 12.525248810357759 -1 0 0
56 1 2.5561907741071144 1.1457070180896574e-07 12.525248812367128 0 0 0
59 1 3.834286433128449 2.213726451926442 12.525248818745595 0 0 0
64 1 1.2780952593078727 0.7379088679241483 14.612742014401947 0 0 0
65 1 3.8342862593077696 0.737908877509241 14.61274201439908 0 0 0
67 1 2.5561909132564438 2.951635207203516 14.612742017840208 0 0 0
57 1 5.112381779358154 1.2310161109209824e-07 12.525248814376422 0 0 0
60 1 6.390477431575681 2.2137264499421847 12.525248815072777 0 0 0
62 1 5.112382103899876 4.427452766845064 12.52524882035132 0 0 0
63 1 7.6685731038998775 4.427452778791732 12.525248825818045 0 0 0
66 1 6.390477257770937 0.7379088727166824 14.612742014400501 0 0 0
68 1 5.1123819189948145 2.9516352024791623 14.612742019658457 0 0 0
69 1 7.668572918994808 2.951635211927869 14.612742016022008 0 0 0
70 1 3.834286608071924 5.165361535918924 14.612742009212932 0 0 0
71 1 6.390477615917154 5.1653615381545475 14.612742012258474 0 0 0
58 1 8.946668433128519 2.213726447957974 12.525248811399988 -1 0 0
61 1 10.22476409822448 4.427452772818423 12.525248823084675 -1 0 0
72 1 8.946668608071832 5.165361540390193 14.612742015304095 0 0 0
73 1 2.556190752426789 1.4758176399227432 16.7002740451206 0 0 0
82 1 7.6685725574963115 9.516939934695292e-08 18.78490087317065 -1 0 0
83 1 2.556190561605534 1.0791508526021109e-07 18.784900872310992 0 0 0
86 1 3.8342862180027244 2.2137264427082566 18.78490087241096 0 0 0
74 1 5.1123817464727805 1.4758176428099437 16.700274045992735 0 0 0
75 1 7.66857274647284 1.4758176370355534 16.700274044248403 0 0 0
76 1 3.834286416964818 3.6895439915528945 16.700274046220283 0 0 0
77 1 6.390477432258546 3.6895439898616487 16.70027404677305 0 0 0
79 1 5.112382069347016 5.903270312048106 16.70027404932691 0 0 0
80 1 7.6685730693469765 5.903270305587654 16.70027405496464 0 0 0
84 1 5.1123815574962235 1.2066087162511832e-07 18.78490087145134 0 0 0
87 1 6.390477217699326 2.2137264356155537 18.78490087289888 0 0 0
89 1 5.112381888759403 4.427452756630128 18.784900870312814 0 0 0
90 1 7.668572888759375 4.427452764349427 18.78490086958959 0 0 0
78 1 8.946668416964863 3.689543988170335 16.70027404732586 0 0 0
81 1 10.224764053881934 5.903270308817918 16.700274052145787 0 0 0
85 1 8.946668218002836 2.213726428522868 18.784900873386793 -1 0 0
88 1 10.224763879644609 4.427452760489768 18.784900869951198 -1 0 0
91 1 2.556190753227337 1.4758176403907697 20.86952712789439 0 0 0
92 1 5.112381746178287 1.4758176431398096 20.869527127219584 0 0 0
93 1 7.668572746178347 1.4758176376417362 20.869527128569242 0 0 0
94 1 3.83428641708561 3.6895439920186437 20.869527127570557 0 0 0
95 1 6.3904774322213225 3.689543990737257 20.86952712812628 0 0 0
97 1 5.11238206973619 5.903270310518343 20.86952712740191 0 0 0
98 1 7.668573069736157 5.903270304506765 20.869527124420866 0 0 0
96 1 8.946668417085657 3.689543989455806 20.869527128681963 0 0 0
99 1 10.224764053314711 5.9032703075125905 20.86952712591138 0 0 0
100 1 1.27809525879533 0.7379088700384451 22.957058577256067 0 0 0
101 1 3.8342862587952338 0.7379088802891123 22.95705857958465 0 0 0
103 1 2.5561909132797584 2.951635203983731 22.957058584154108 0 0 0
109 1 7.668572779321714 1.0367426919424869e-07 25.044552120759853 -1 0 0
110 1 2.556190774811726 1.1192096048952678e-07 25.044552116461134 0 0 0
113 1 3.834286433369421 2.2137264524777467 25.044552105384142 0 0 0
102 1 6.39047725908728 0.7379088751637677 22.957058578420376 0 0 0
104 1 5.112381919147936 2.9516351999331114 22.957058584774586 0 0 0
105 1 7.668572919147927 2.9516352080343524 22.95705858353357 0 0 0
106 1 3.834286608767766 5.1653615370915995 22.957058587391916 0 0 0
107 1 6.390477614843976 5.165361538927938 22.957058583328834 0 0 0
111 1 5.112381779321625 1.20167764809881e-07 25.04455211216249 0 0 0
114 1 6.390477431635714 2.213726451026982 25.044552110816255 0 0 0
116 1 5.112382104702471 4.427452768379433 25.04455210046309 0 0 0
117 1 7.668573104702469 4.427452780642714 25.044552094354824 0 0 0
108 1 8.946668608767672 5.165361540764299 22.95705857926571 0 0 0
112 1 8.946668433369497 2.2137264495762654 25.04455211624834 -1 0 0
115 1 10.224764097211166 4.427452774511096 25.04455209740896 -1 0 0
118 1 2.5561909244792385 1.4758176535867236 27.132034985852236 0 0 0
127 1 1.278095392444946 0.7379088750197227 29.219516923498354 0 0 0
128 1 3.834286392444884 0.7379088803379912 29.219516920527337 0 0 0
130 1 2.556191057756811 2.951635216581612 29.2195169095257 0 0 0
119 1 5.112381919572405 1.4758176556795046 27.13203499083091 0 0 0
120 1 7.668572919572458 1.475817651493948 27.13203498087356 0 0 0
121 1 3.8342865963669954 3.689543994492129 27.132035006344783 0 0 0
122 1 6.390477603862069 3.6895439972218225 27.13203500394614 0 0 0
124 1 5.1123822390050675 5.903270326511064 27.13203498778149 0 0 0
125 1 7.668573239005056 5.903270327640525 27.132034993933985 0 0 0
129 1 6.390477386400364 0.7379088776788406 29.219516922012822 0 0 0
131 1 5.112382055682609 2.9516352076294488 29.219516904285452 0 0 0
132 1 7.668573055682598 2.9516352255338085 29.219516914765894 0 0 0
133 1 3.8342867397879714 5.165361530519661 29.219516916179202 0 0 0
134 1 6.3904777366684105 5.165361540165386 29.219516913932498 0 0 0
123 1 8.94666859636708 3.689543999951457 27.132035001547468 0 0 0
126 1 10.224764239541077 5.90327032707579 27.132034990857747 0 0 0
135 1 8.946668739787892 5.165361549811166 29.219516911685673 0 0 0
136 1 7.66857288105213 1.1336900019876361e-07 31.306998367877878 -1 0 0
137 1 2.5561908831262024 1.223211551029735e-07 31.306998373117995 0 0 0
140 1 3.834286535473841 2.213726457175514 31.306998382683993 0 0 0
145 1 2.5561910092523026 1.4758176729241717 33.39448029712666 0 0 0
138 1 5.112381881052029 1.312734091470102e-07 31.30699837835817 0 0 0
141 1 6.39047752942934 2.2137264598345947 31.30699838119849 0 0 0
143 1 5.112382199548344 4.4274527737726315 31.30699838785193 0 0 0
144 1 7.668573199548364 4.4274527930640515 31.30699838335831 0 0 0
146 1 5.112382004345485 1.475817670831348 33.39448029214802 0 0 0
147 1 7.668573004345506 1.4758176750169911 33.394480302105336 0 0 0
148 1 3.8342866845992534 3.689544002213498 33.39448028096182 0 0 0
149 1 6.390477685135321 3.689544002778267 33.39448028403806 0 0 0
151 1 5.112382326209751 5.903270343683577 33.39448030453062 0 0 0
152 1 7.6685733262097635 5.9032703491429155 33.394480299733054 0 0 0
139 1 8.946668535473954 2.213726462493683 31.30699837971297 -1 0 0
142 1 10.224764196428776 4.427452783418342 31.306998385605148 -1 0 0
150 1 8.946668684599274 3.6895440033430065 33.39448028711425 0 0 0
153 1 10.224764333704792 5.903270346413261 33.39448030213184 0 0 0
154 1 1.2780954882868245 0.7379088895297355 35.48196317012022 0 0 0
155 1 3.834286488286762 0.7379088866282684 35.481963180984444 0 0 0
157 1 2.5561911542596936 2.9516352254889178 35.48196319460457 0 0 0
163 1 7.668573016062048 1.2078565090384872e-07 37.56945670976395 -1 0 0
164 1 2.5561910101938135 1.248361789212431e-07 37.56945670914345 0 0 0
167 1 3.8342866671052307 2.21372645594674 37.56945670307081 0 0 0
156 1 6.390477486553028 0.7379088880789559 35.48196317555232 0 0 0
158 1 5.11238215876967 2.951635217242177 35.48196319890323 0 0 0
159 1 7.668573158769654 2.951635233735633 35.481963190305855 0 0 0
160 1 3.834286834381257 5.1653615428413895 35.48196318425136 0 0 0
161 1 6.390477826889983 5.165361548973023 35.48196318119713 0 0 0
165 1 5.11238201606196 1.288867421838725e-07 37.56945670852303 0 0 0
168 1 6.390477667397443 2.213726461072011 37.569456704235115 0 0 0
170 1 5.112382315585416 4.4274527941799295 37.56945670747298 0 0 0
171 1 7.668573315585409 4.427452797852633 37.56945669934668 0 0 0
162 1 8.946668834381168 5.165361555104733 35.4819631781428 0 0 0
166 1 8.9466686671053 2.213726466197264 37.569456705399396 -1 0 0
169 1 10.224764321661677 4.427452796016305 37.56945670340985 -1 0 0
172 1 2.556191191974903 1.4758176924874034 39.65698816338373 0 0 0
181 1 1.2780957039579812 0.7379088991775871 41.74161441204462 0 0 0
182 1 3.834286703957946 0.737908884992165 41.74161441302047 0 0 0
184 1 2.556191369797698 2.951635239510214 41.74161441489244 0 0 0
173 1 5.112382184925899 1.475817689738379 39.656988164058525 0 0 0
174 1 7.668573184925924 1.4758176952363995 39.656988162708956 0 0 0
175 1 3.8342868628923545 3.689544012268542 39.65698816265975 0 0 0
176 1 6.390477846470893 3.689544009262804 39.65698816116902 0 0 0
178 1 5.112382503076237 5.903270360890698 39.65698816084479 0 0 0
179 1 7.6685735030762405 5.903270358327813 39.65698816195644 0 0 0
183 1 6.390477703654505 0.7379088920848357 41.74161441253255 0 0 0
185 1 5.112382365688474 2.95163522676451 41.74161441575215 0 0 0
186 1 7.668573365688449 2.951635252255941 41.74161441403274 0 0 0
187 1 3.8342870539159426 5.1653615605247625 41.74161441230631 0 0 0
188 1 6.390478044801199 5.16536156438443 41.741614411944695 0 0 0
177 1 8.946668862892313 3.6895440062570155 39.65698815967831 0 0 0
180 1 10.224764518211956 5.903270359609247 39.65698816140056 0 0 0
189 1 8.946669053915826 5.165361568244153 41.741614411583086 0 0 0
190 1 2.556191191304443 1.4758176911821244 43.82624124084571 0 0 0
191 1 5.112382185350547 1.4758176882949057 43.82624123997341 0 0 0
192 1 7.668573185350578 1.47581769406932 43.82624124171801 0 0 0
193 1 3.834286862638175 3.6895440133686432 43.826241243399714 0 0 0
194 1 6.390477847173031 3.6895440101384227 43.82624124621844 0 0 0
196 1 5.112382503092652 5.903270361768509 43.82624124731794 0 0 0
197 1 7.668573503092655 5.903270358385994 43.82624124842369 0 0 0
195 1 8.946668862638138 3.689544006908153 43.826241249037125 0 0 0
198 1 10.224764518386376 5.9032703600772365 43.82624124787087 0 0 0
199 1 7.668573016128774 1.2255893249776606e-07 45.91377327586619 -1 0 0
200 1 2.5561910103902354 1.27283319249355e-07 45.91377327404801 0 0 0
203 1 3.8342866678108 2.2137264570528554 45.9137732761913 0 0 0
208 1 1.2780954883726876 0.7379088874135081 48.00126648519272 0 0 0
209 1 3.8342864883726304 0.7379088834452162 48.001266477847196 0 0 0
211 1 2.5561911539428244 2.951635227181545 48.00126647080233 0 0 0
201 1 5.112382016128693 1.320077499059209e-07 45.913773272229776 0 0 0
204 1 6.390477666273883 2.2137264618454267 45.91377327618996 0 0 0
206 1 5.112382315099401 4.427452790560856 45.91377326756276 0 0 0
207 1 7.668573315099396 4.427452795031985 45.91377327365375 0 0 0
210 1 6.3904774868198055 0.7379088854293183 48.00126648151998 0 0 0
212 1 5.112382159193917 2.9516352186506576 48.00126646879304 0 0 0
213 1 7.668573159193903 2.951635235712409 48.0012664728117 0 0 0
214 1 3.8342868339504337 5.165361544084436 48.00126647608079 0 0 0
215 1 6.390477828274973 5.165361550057738 48.001266478814024 0 0 0
202 1 8.946668667810876 2.21372646663799 45.91377327618864 -1 0 0
205 1 10.224764322944594 4.4274527927964415 45.913773270608246 -1 0 0
216 1 8.94666883395034 5.165361556031124 48.00126648154735 0 0 0
217 1 2.5561910094891225 1.4758176727518106 50.088748767236666 0 0 0
226 1 7.668572884927159 1.1645981725410475e-07 52.17623079805341 -1 0 0
227 1 2.556190885294074 1.2558245548818908e-07 52.17623079189013 0 0 0
230 1 3.8342865380425772 2.2137264584344423 52.176230792904725 0 0 0
218 1 5.112382005030894 1.4758176707253738 50.088748770443054 0 0 0
219 1 7.668573005030921 1.475817674778253 50.08874876403029 0 0 0
220 1 3.834286685908019 3.6895440030698814 50.08874878351373 0 0 0
221 1 6.390477684539615 3.689544003190443 50.08874878244386 0 0 0
223 1 5.112382326787015 5.903270343693752 50.08874876761559 0 0 0
224 1 7.668573326787035 5.9032703500978405 50.088748773055514 0 0 0
228 1 5.112381884927071 1.3470520456352778e-07 52.176230785726815 0 0 0
231 1 6.390477533598206 2.213726460081223 52.17623079204766 0 0 0
233 1 5.112382201689191 4.427452774726832 52.176230781055466 0 0 0
234 1 7.6685732016892105 4.427452792527796 52.17623078158958 0 0 0
222 1 8.946668685908035 3.6895440033109668 50.08874878137401 0 0 0
225 1 10.224764334324028 5.903270346895811 50.08874877033556 0 0 0
229 1 8.946668538042703 2.2137264617280277 52.17623079119063 -1 0 0
232 1 10.224764201617518 4.427452783627312 52.17623078132249 -1 0 0
235 1 1.2780954062994458 0.7379088816636435 54.263712466155376 0 0 0
236 1 3.8342864062993813 0.7379088836360553 54.26371246646858 0 0 0
238 1 2.5561910737155076 2.9516352233072882 54.26371246949482 0 0 0
244 1 2.556190962022123 1.4758176614161709 56.35119392924249 0 0 0
237 1 6.390477399901584 0.7379088826498269 54.263712466312 0 0 0
239 1 5.112382069783569 2.951635213670889 54.26371247159733 0 0 0
240 1 7.668573069783565 2.9516352329437594 54.26371246739241 0 0 0
241 1 3.834286752078313 5.165361530966989 54.2637124690818 0 0 0
242 1 6.390477752019981 5.16536154139741 54.26371247415594 0 0 0
245 1 5.112381960405872 1.4758176615122163 56.351193927449934 0 0 0
246 1 7.668572960405902 1.475817661320142 56.35119393103506 0 0 0
247 1 3.834286642212424 3.6895440002287856 56.351193924331824 0 0 0
248 1 6.390477641378693 3.6895440003188145 56.35119392549334 0 0 0
250 1 5.112382280069636 5.903270337962469 56.351193926518924 0 0 0
251 1 7.66857328006965 5.903270339993923 56.35119392541142 0 0 0
243 1 8.946668752078203 5.165361551827888 54.26371247923015 0 0 0
249 1 8.946668642212474 3.689544000408801 56.35119392665493 0 0 0
252 1 10.22476428126421 5.90327033897819 56.35119392596517 0 0 0
253 1 7.668572865481002 1.0808498839696531e-07 58.4386754283477 -1 0 0
254 1 2.556190868573263 1.1752409698230194e-07 58.43867542796022 0 0 0
257 1 3.8342865206760433 2.2137264596152546 58.438675436514075 0 0 0
262 1 1.2780954008449101 0.7379088815860614 60.52615640787572 0 0 0
263 1 3.834286400844854 0.7379088823827668 60.526156400281444 0 0 0
265 1 2.5561910681699005 2.9516352188658384 60.526156393924424 0 0 0
255 1 5.112381865480886 1.26963333215493e-07 58.438675427572726 0 0 0
258 1 6.39047751577419 2.2137264602113667 58.438675432299405 0 0 0
260 1 5.112382185518355 4.427452768991789 58.43867543284898 0 0 0
261 1 7.668573185518355 4.427452788703694 58.43867543978523 0 0 0
264 1 6.390477398343114 0.73790888198438 60.526156404078584 0 0 0
266 1 5.112382066178124 2.9516352099400427 60.526156393717 0 0 0
267 1 7.6685730661781335 2.9516352277916966 60.526156394131974 0 0 0
268 1 3.8342867475094335 5.165361533461038 60.52615639702474 0 0 0
269 1 6.390477748154257 5.165361542641718 60.52615640146449 0 0 0
256 1 8.946668520676159 2.213726460807471 58.43867542808478 -1 0 0
259 1 10.22476418632246 4.427452778847726 58.43867543631708 -1 0 0
270 1 8.946668747509333 5.16536155182246 60.5261564059043 0 0 0
271 1 2.556190962908137 1.475817663653256 62.61363664671874 0 0 0
272 1 5.1123819590138835 1.4758176636532543 62.613636646718675 0 0 0
273 1 7.66857295901391 1.4758176636532718 62.6136366467188 0 0 0
274 1 3.8342866419807313 3.689543998642031 62.61363664516131 0 0 0
275 1 6.390477639854673 3.689544000000015 62.61363664399108 0 0 0
277 1 5.112382280284274 5.903270334988795 62.61363664243378 0 0 0
278 1 7.668573280284268 5.903270337704696 62.61363664009333 0 0 0
276 1 8.946668641980786 3.689544001357947 62.6136366428209 0 0 0
279 1 10.224764278158236 5.903270336346742 62.61363664126357 0 0 0

Velocities

1 0 0 0
2 0 0 0
5 0 0 0
10 0 0 0
11 0 0 0
13 0 0 0
3 0 0 0
6 0 0 0
8 0 0 0
9 0 0 0
12 0 0 0
14 0 0 0
15 0 0 0
16 0 0 0
17 0 0 0
4 0 0 0
7 0 0 0
18 0 0 0
19 0 0 0
28 0 0 0
29 0 0 0
32 0 0 0
20 0 0 0
21 0 0 0
22 0 0 0
23 0 0 0
25 0 0 0
26 0 0 0
30 0 0 0
33 0 0 0
35 0 0 0
36 0 0 0
24 0 0 0
27 0 0 0
31 0 0 0
34 0 0 0
37 0 0 0
38 0 0 0
40 0 0 0
46 0 0 0
39 0 0 0
41 0 0 0
42 0 0 0
43 0 0 0
44 0 0 0
47 0 0 0
48 0 0 0
49 0 0 0
50 0 0 0
52 0 0 0
53 0 0 0
45 0 0 0
51 0 0 0
54 0 0 0
55 0 0 0
56 0 0 0
59 0 0 0
64 0 0 0
65 0 0 0
67 0 0 0
57 0 0 0
60 0 0 0
62 0 0 0
63 0 0 0
66 0 0 0
68 0 0 0
69 0 0 0
70 0 0 0
71 0 0 0
58 0 0 0
61 0 0 0
72 0 0 0
73 0 0 0
82 0 0 0
83 0 0 0
86 0 0 0
74 0 0 0
75 0 0 0
76 0 0 0
77 0 0 0
79 0 0 0
80 0 0 0
84 0 0 0
87 0 0 0
89 0 0 0
90 0 0 0
78 0 0 0
81 0 0 0
85 0 0 0
88 0 0 0
91 0 0 0
92 0 0 0
93 0 0 0
94 0 0 0
95 0 0 0
97 0 0 0
98 0 0 0
96 0 0 0
99 0 0 0
100 0 0 0
101 0 0 0
103 0 0 0
109 0 0 0
110 0 0 0
113 0 0 0
102 0 0 0
104 0 0 0
105 0 0 0
106 0 0 0
107 0 0 0
111 0 0 0
114 0 0 0
116 0 0 0
117 0 0 0
108 0 0 0
112 0 0 0
115 0 0 0
118 0 0 0
127 0 0 0
128 0 0 0
130 0 0 0
119 0 0 0
120 0 0 0
121 0 0 0
122 0 0 0
124 0 0 0
125 0 0 0
129 0 0 0
131 0 0 0
132 0 0 0
133 0 0 0
134 0 0 0
123 0 0 0
126 0 0 0
135 0 0 0
136 0 0 0
137 0 0 0
140 0 0 0
145 0 0 0
138 0 0 0
141 0 0 0
143 0 0 0
144 0 0 0
146 0 0 0
147 0 0 0
148 0 0 0
149 0 0 0
151 0 0 0
152 0 0 0
139 0 0 0
142 0 0 0
150 0 0 0
153 0 0 0
154 0 0 0
155 0 0 0
157 0 0 0
163 0 0 0
164 0 0 0
167 0 0 0
156 0 0 0
158 0 0 0
159 0 0 0
160 0 0 0
161 0 0 0
165 0 0 0
168 0 0 0
170 0 0 0
171 0 0 0
162 0 0 0
166 0 0 0
169 0 0 0
172 0 0 0
181 0 0 0
182 0 0 0
184 0 0 0
173 0 0 0
174 0 0 0
175 0 0 0
176 0 0 0
178 0 0 0
179 0 0 0
183 0 0 0
185 0 0 0
186 0 0 0
187 0 0 0
188 0 0 0
177 0 0 0
180 0 0 0
189 0 0 0
190 0 0 0
191 0 0 0
192 0 0 0
193 0 0 0
194 0 0 0
196 0 0 0
197 0 0 0
195 0 0 0
198 0 0 0
199 0 0 0
200 0 0 0
203 0 0 0
208 0 0 0
209 0 0 0
211 0 0 0
201 0 0 0
204 0 0 0
206 0 0 0
207 0 0 0
210 0 0 0
212 0 0 0
213 0 0 0
214 0 0 0
215 0 0 0
202 0 0 0
205 0 0 0
216 0 0 0
217 0 0 0
226 0 0 0
227 0 0 0
230 0 0 0
218 0 0 0
219 0 0 0
220 0 0 0
221 0 0 0
223 0 0 0
224 0 0 0
228 0 0 0
231 0 0 0
233 0 0 0
234 0 0 0
222 0 0 0
225 0 0 0
229 0 0 0
232 0 0 0
235 0 0 0
236 0 0 0
238 0 0 0
244 0 0 0
237 0 0 0
239 0 0 0
240 0 0 0
241 0 0 0
242 0 0 0
245 0 0 0
246 0 0 0
247 0 0 0
248 0 0 0
250 0 0 0
251 0 0 0
243 0 0 0
249 0 0 0
252 0 0 0
253 0 0 0
254 0 0 0
257 0 0 0
262 0 0 0
263 0 0 0
265 0 0 0
255 0 0 0
258 0 0 0
260 0 0 0
261 0 0 0
264 0 0 0
266 0 0 0
267 0 0 0
268 0 0 0
269 0 0 0
256 0 0 0
259 0 0 0
270 0 0 0
271 0 0 0
272 0 0 0
273 0 0 0
274 0 0 0
275 0 0 0
277 0 0 0
278 0 0 0
276 0 0 0
279 0 0 0
