LAMMPS data file via write_data, version 22 Jul 2025, timestep = 12, units = metal

207 atoms
3 atom types

0 7.668573 xlo xhi
0 6.641179 ylo yhi
0 48.003788 zlo zhi
3.834287 0 0 xy xz yz

Masses

1 63.55
2 63.55
3 63.55

Atoms # atomic

1 1 7.668572931291021 1.1839082280099221e-07 48.001624751799305 -1 0 -1
2 1 2.5561909381928842 1.2004975267524963e-07 48.001624752903766 0 0 -1
5 1 3.834286603351301 2.2137264569688107 48.001624756604116 0 0 -1
10 1 1.278095471065738 0.7379088884589643 2.0830719597295406 0 0 0
11 1 3.8342864710657607 0.737908898091683 2.083071959318854 0 0 0
13 1 2.556191138115044 2.9516352288959364 2.083071952592816 0 0 0
3 1 5.1123819312909795 1.217086506340965e-07 48.00162475400823 0 0 -1
6 1 6.390477603858826 2.2137264537039902 48.00162475531491 0 0 -1
8 1 5.112382269264982 4.427452780254652 48.00162475544178 0 0 -1
9 1 7.668573269264982 4.42745278332159 48.001624755365896 0 0 -1
12 1 6.390477473029818 0.7379088932753106 2.083071959524218 0 0 0
14 1 5.112382137346871 2.9516352261527574 2.083071950427279 0 0 0
15 1 7.668573137346871 2.951635231639094 2.0830719547583545 0 0 0
16 1 3.8342868082791117 5.165361553031426 2.0830719581393504 0 0 0
17 1 6.390477816213851 5.165361556914126 2.0830719599798675 0 0 0
4 1 8.9466686033513 2.2137264504392387 48.00162475402574 -1 0 -1
7 1 10.224764273890813 4.427452781788167 48.00162475540383 -1 0 -1
18 1 8.946668808279078 5.1653615607968755 2.08307196182039 0 0 0
19 1 2.5561910112355406 1.475817663971315 4.171229879943533 0 0 0
28 1 7.668572865917914 1.1783040865461332e-07 6.259334251848863 -1 0 0
29 1 2.5561908735294856 1.1300359031926009e-07 6.2593342554873805 0 0 0
32 1 3.8342865436471927 2.21372644621533 6.259334257079354 0 0 0
20 1 5.112382015459698 1.47581766061409 4.171229881927178 0 0 0
21 1 7.668573015459694 1.4758176673285075 4.171229877959908 0 0 0
22 1 3.8342866701092966 3.6895439984722977 4.171229889947253 0 0 0
23 1 6.39047767206721 3.689544002717216 4.171229887016359 0 0 0
25 1 5.112382338924642 5.903270340407532 4.171229875866979 0 0 0
26 1 7.668573338924665 5.903270336827731 4.171229879424532 0 0 0
30 1 5.112381865917888 1.081767218731346e-07 6.259334259125903 0 0 0
33 1 6.390477538698335 2.2137264463238147 6.259334256877371 0 0 0
35 1 5.112382190667528 4.427452773819248 6.259334261889509 0 0 0
36 1 7.6685731906675345 4.42745276593463 6.259334261210323 0 0 0
24 1 8.946668670109288 3.6895440069621985 4.171229884085497 0 0 0
27 1 10.224764341720926 5.903270338617647 4.1712298776457715 0 0 0
31 1 8.946668543647185 2.213726446432336 6.2593342566753885 -1 0 0
34 1 10.224764204767464 4.427452769876934 6.259334261549904 -1 0 0
37 1 1.278095412189348 0.7379088919474515 8.347426717891711 0 0 0
38 1 3.834286412189372 0.7379088952732215 8.347426716857386 0 0 0
40 1 2.556191084180285 2.951635236763514 8.347426712844708 0 0 0
46 1 2.556190957268473 1.475817659468943 10.435518301816646 0 0 0
39 1 6.390477407552256 0.7379088936103478 8.347426717374569 0 0 0
41 1 5.112382079517021 2.9516352412204485 8.34742671111366 0 0 0
42 1 7.668573079517017 2.951635232306581 8.347426714575764 0 0 0
43 1 3.834286748001338 5.165361566406146 8.347426716319257 0 0 0
44 1 6.3904777620773645 5.16536156225862 8.347426715903406 0 0 0
47 1 5.11238196335344 1.4758176594751264 10.435518299973868 0 0 0
48 1 7.66857296335342 1.4758176594627117 10.43551830365943 0 0 0
49 1 3.834286619476085 3.6895439965250243 10.43551829590654 0 0 0
50 1 6.390477621340573 3.689543995914791 10.435518296030112 0 0 0
52 1 5.112382292401138 5.90327033859081 10.435518298783965 0 0 0
53 1 7.668573292401161 5.903270335610263 10.43551829750567 0 0 0
45 1 8.946668748001317 5.165361558111117 8.34742671548758 0 0 0
51 1 8.94666861947609 3.689543995304628 10.435518296153687 0 0 0
54 1 10.22476429695379 5.903270337100534 10.43551829814482 0 0 0
55 1 7.668572815634564 1.0255784709772845e-07 12.523608580223577 -1 0 0
56 1 2.5561908236340742 9.641115446030937e-08 12.523608581370304 0 0 0
59 1 3.8342864914633843 2.213726431102675 12.523608588925871 0 0 0
64 1 1.2780953295589061 0.737908886410785 14.611710523877935 0 0 0
65 1 3.8342863295589313 0.7379088873384406 14.611710524811436 0 0 0
67 1 2.5561910080102956 2.9516352204440293 14.611710526005972 0 0 0
57 1 5.112381815634542 9.026442000007444e-08 12.523608582517046 0 0 0
60 1 6.390477486858451 2.2137264331723503 12.523608588611422 0 0 0
62 1 5.112382138299868 4.42745276412152 12.523608591272318 0 0 0
63 1 7.66857313829987 4.427452755526226 12.523608586443418 0 0 0
66 1 6.390477328299445 0.7379088868746285 14.611710524344698 0 0 0
68 1 5.11238200046379 2.951635223732435 14.611710524603719 0 0 0
69 1 7.668573000463796 2.951635217155603 14.611710527408214 0 0 0
70 1 3.83428666621831 5.165361556071705 14.61171052760412 0 0 0
71 1 6.390477671132719 5.165361552224785 14.611710527118666 0 0 0
58 1 8.94666849146336 2.213726435242055 12.523608588296964 -1 0 0
61 1 10.224764151498432 4.4274527598238524 12.523608588857861 -1 0 0
72 1 8.946668666218304 5.165361548377856 14.611710526633232 0 0 0
73 1 2.5561908286671216 1.4758176591832255 16.69985543552287 0 0 0
82 1 7.668572655367149 1.060998685275157e-07 18.785134538673088 -1 0 0
83 1 2.5561906561158314 9.622144861033865e-08 18.78513453657537 0 0 0
86 1 3.8342863251909374 2.2137264217491395 18.785134534873038 0 0 0
74 1 5.112381829871819 1.4758176544747126 16.69985543273036 0 0 0
75 1 7.668572829871815 1.4758176638916976 16.69985543831539 0 0 0
76 1 3.8342864975882813 3.6895439922519166 16.699855432373965 0 0 0
77 1 6.39047749532631 3.689543995907601 16.699855431052736 0 0 0
79 1 5.112382162002428 5.903270333297472 16.699855433198817 0 0 0
80 1 7.668573162002415 5.9032703297457765 16.699855429185067 0 0 0
84 1 5.11238165536715 8.634297231130683e-08 18.785134534477653 0 0 0
87 1 6.390477321317149 2.2137264264757515 18.785134535281472 0 0 0
89 1 5.112381969410805 4.427452757270823 18.785134532817533 0 0 0
90 1 7.668572969410802 4.427452751436622 18.785134534126914 0 0 0
78 1 8.946668497588286 3.6895439995633175 16.69985542973148 0 0 0
81 1 10.224764169347914 5.9032703315216 16.699855431191942 0 0 0
85 1 8.946668325190918 2.213726431202403 18.7851345356899 -1 0 0
88 1 10.224763992177582 4.427452754353704 18.78513453347222 -1 0 0
91 1 2.556190905265306 1.4758176672778096 20.87042894067148 0 0 0
100 1 1.2780954698218907 0.7379088891265686 22.958627505754407 0 0 0
101 1 3.8342864698219015 0.7379088918925952 22.958627508301337 0 0 0
103 1 2.556191147130566 2.9516352266388575 22.958627511931947 0 0 0
92 1 5.112381901367339 1.4758176573551067 20.870428941124928 0 0 0
93 1 7.66857290136734 1.4758176772004634 20.870428940218 0 0 0
94 1 3.8342865702151263 3.689543997114923 20.87042893490403 0 0 0
95 1 6.390477568880156 3.6895440048644024 20.870428939799286 0 0 0
97 1 5.112382227121411 5.903270337245096 20.870428943926004 0 0 0
98 1 7.668573227121403 5.9032703330120055 20.87042894639413 0 0 0
102 1 6.390477469865158 0.7379088905095692 22.95862750702787 0 0 0
104 1 5.112382148556872 2.951635225287974 22.958627512414182 0 0 0
105 1 7.668573148556861 2.9516352279897182 22.9586275114497 0 0 0
106 1 3.8342868014323708 5.165361558831243 22.958627508708382 0 0 0
107 1 6.390477804882259 5.165361561014129 22.958627510604707 0 0 0
96 1 8.946668570215124 3.689544012613882 20.870428944694538 0 0 0
99 1 10.224764237842562 5.903270335128529 20.87042894516005 0 0 0
108 1 8.946668801432336 5.16536156319702 22.958627512501053 0 0 0
109 1 7.6685730363973486 1.1705638654013042e-07 25.04391387617685 -1 0 0
110 1 2.5561910512218065 1.1351312071873394e-07 25.04391387580259 0 0 0
113 1 3.8342867202461495 2.2137264611639758 25.043913873717127 0 0 0
118 1 1.2780955394613633 0.7379088941684883 27.129190797837186 0 0 0
119 1 3.834286539461392 0.7379088993430115 27.129190799120938 0 0 0
121 1 2.55619121353358 2.951635232504533 27.12919079622136 0 0 0
111 1 5.112382036397324 1.0996981792393544e-07 25.043913875428345 0 0 0
114 1 6.390477714503659 2.2137264574744875 25.04391387287752 0 0 0
116 1 5.1123823688175545 4.4274527846089295 25.043913870998892 0 0 0
117 1 7.668573368817565 4.427452777513074 25.04391387315324 0 0 0
120 1 6.390477541260813 0.7379088967557422 27.12919079847907 0 0 0
122 1 5.112382215796623 2.9516352354751425 27.129190796625046 0 0 0
123 1 7.6685732157966084 2.9516352295339012 27.12919079581768 0 0 0
124 1 3.834286873745644 5.1653615693333785 27.129190798656687 0 0 0
125 1 6.390477885774725 5.165361569344379 27.129190799244668 0 0 0
112 1 8.946668720246121 2.2137264537850534 25.043913872037933 -1 0 0
115 1 10.224764372269991 4.427452781061016 25.04391387207607 -1 0 0
126 1 8.946668873745603 5.165361569355411 27.129190799832642 0 0 0
127 1 2.5561910459538524 1.4758176724009666 29.217333360127054 0 0 0
136 1 7.668572876128521 1.20706249823968e-07 31.305437500269537 -1 0 0
137 1 2.5561908829032634 1.1460020532395356e-07 31.305437503646484 0 0 0
140 1 3.834286553358856 2.21372644792743 31.305437506241034 0 0 0
128 1 5.112382047306318 1.4758176678749457 29.217333363168013 0 0 0
129 1 7.668573047306315 1.4758176769269533 29.217333357086115 0 0 0
130 1 3.8342867033857218 3.6895440072154573 29.217333372730256 0 0 0
131 1 6.390477705989237 3.6895440103165162 29.217333368514236 0 0 0
133 1 5.112382372408132 5.90327034522877 29.21733335581822 0 0 0
134 1 7.668573372408151 5.903270343857737 29.217333356691697 0 0 0
138 1 5.1123818761285005 1.0849411511259377e-07 31.30543750702344 0 0 0
141 1 6.390477549921841 2.2137264482228582 31.305437505432476 0 0 0
143 1 5.112382198848611 4.42745277970291 31.30543750999651 0 0 0
144 1 7.668573198848616 4.427452770105723 31.305437509204157 0 0 0
132 1 8.946668703385697 3.689544013417618 29.21733336429825 0 0 0
135 1 10.224764375934344 5.903270344543262 29.217333356254983 0 0 0
139 1 8.946668553358842 2.2137264485183246 31.305437504623928 -1 0 0
142 1 10.224764213000105 4.427452774904313 31.305437509600335 -1 0 0
145 1 1.278095414857766 0.7379088977921834 33.39353207114547 0 0 0
146 1 3.8342864148577864 0.7379089023749936 33.393532069549735 0 0 0
148 1 2.5561910889207007 2.9516352342394567 33.39353206365962 0 0 0
154 1 2.5561909622417365 1.4758176593195227 35.481624395023225 0 0 0
147 1 6.390477410254487 0.737908900083599 33.393532070347625 0 0 0
149 1 5.112382081173886 2.951635239681546 33.393532062558904 0 0 0
150 1 7.668573081173889 2.951635228797367 33.393532064760336 0 0 0
151 1 3.834286750972268 5.165361564698318 33.39353206572927 0 0 0
152 1 6.390477763170704 5.165361561311114 33.3935320643314 0 0 0
155 1 5.112381970357118 1.4758176587947072 35.48162439550431 0 0 0
156 1 7.668572970357089 1.4758176598442994 35.48162439454213 0 0 0
157 1 3.834286624167918 3.6895440021458996 35.4816243938243 0 0 0
158 1 6.390477629095379 3.689544000975096 35.48162439333553 0 0 0
160 1 5.112382299398014 5.903270340728589 35.48162439107077 0 0 0
161 1 7.668573299398037 5.903270338902672 35.48162439091263 0 0 0
153 1 8.946668750972247 5.165361557923923 33.393532062933566 0 0 0
159 1 8.946668624167902 3.68954399980438 35.48162439284676 0 0 0
162 1 10.224764303034826 5.903270339815639 35.4816243909917 0 0 0
163 1 7.668572836822972 1.0747586527220565e-07 37.569718585146475 -1 0 0
164 1 2.5561908445626544 1.0317434393682352e-07 37.56971858600862 0 0 0
167 1 3.83428651221464 2.2137264374094032 37.56971859405501 0 0 0
172 1 1.2780953757858498 0.7379088865356167 39.65781277490309 0 0 0
173 1 3.8342863757858723 0.7379088866989655 39.657812774189495 0 0 0
175 1 2.5561910514003436 2.951635230525512 39.65781276980819 0 0 0
165 1 5.112381836822945 9.88727673267805e-08 37.569718586870756 0 0 0
168 1 6.390477505933431 2.2137264396467398 37.5697185930175 0 0 0
170 1 5.112382159421621 4.427452766017796 37.569718594111265 0 0 0
171 1 7.668573159421614 4.427452759822108 37.56971859022429 0 0 0
174 1 6.390477371081951 0.7379088866172893 39.65781277454632 0 0 0
176 1 5.112382044027402 2.9516352354067315 39.65781276645041 0 0 0
177 1 7.668573044027396 2.9516352256442846 39.65781277316597 0 0 0
178 1 3.8342867127389155 5.165361557390901 39.65781277280184 0 0 0
179 1 6.390477726798123 5.165361553386636 39.65781277234073 0 0 0
166 1 8.946668512214629 2.213726441884115 37.569718591979964 -1 0 0
169 1 10.224764173940445 4.42745276291994 37.56971859216776 -1 0 0
180 1 8.946668712738898 5.165361549382371 39.657812771879634 0 0 0
181 1 2.5561909037022303 1.4758176610811495 41.74592069468191 0 0 0
190 1 7.668572782984287 1.0462481018843104e-07 43.834083309437474 -1 0 0
191 1 2.5561907835046935 1.0730818973576886e-07 43.834083311691586 0 0 0
194 1 3.8342864442818776 2.213726437919652 43.834083309629015 0 0 0
182 1 5.112381907962838 1.4758176644064998 41.74592069277957 0 0 0
183 1 7.668572907962815 1.4758176577557645 41.74592069658422 0 0 0
184 1 3.8342865771339056 3.689543999079565 41.74592068426579 0 0 0
185 1 6.390477580042089 3.689543997308356 41.745920686198694 0 0 0
187 1 5.112382246437746 5.903270332064892 41.74592069667009 0 0 0
188 1 7.668573246437769 5.903270340509816 41.74592069146834 0 0 0
192 1 5.112381782984259 1.0999153080272133e-07 43.83408331394571 0 0 0
195 1 6.390477446598061 2.213726442681728 43.83408330970341 0 0 0
197 1 5.112382106825184 4.427452767158415 43.83408331490365 0 0 0
198 1 7.668573106825173 4.427452774692939 43.834083319309464 0 0 0
186 1 8.946668577133911 3.6895439955372065 41.74592068813159 0 0 0
189 1 10.224764248338328 5.9032703362873375 41.74592069406922 0 0 0
193 1 8.946668444281876 2.2137264474438667 43.83408330977781 -1 0 0
196 1 10.224764114809263 4.427452770925688 43.83408331710655 -1 0 0
199 1 1.2780953115820628 0.737908883167017 45.919319240432095 0 0 0
200 1 3.834286311582063 0.7379088767481814 45.91931923743316 0 0 0
202 1 2.556190987954458 2.951635218715032 45.91931923707905 0 0 0
201 1 6.390477311727809 0.7379088799575497 45.91931923893264 0 0 0
203 1 5.112381980729688 2.951635216981301 45.91931923606068 0 0 0
204 1 7.66857298072965 2.9516352204487055 45.919319238097415 0 0 0
205 1 3.834286647922924 5.165361544110857 45.91931923605438 0 0 0
206 1 6.39047765257979 5.165361545776631 45.919319235726825 0 0 0
207 1 8.946668647922879 5.165361547442384 45.91931923539931 0 0 0

Velocities

1 0 0 0
2 0 0 0
5 0 0 0
10 0 0 0
11 0 0 0
13 0 0 0
3 0 0 0
6 0 0 0
8 0 0 0
9 0 0 0
12 0 0 0
14 0 0 0
15 0 0 0
16 0 0 0
17 0 0 0
4 0 0 0
7 0 0 0
18 0 0 0
19 0 0 0
28 0 0 0
29 0 0 0
32 0 0 0
20 0 0 0
21 0 0 0
22 0 0 0
23 0 0 0
25 0 0 0
26 0 0 0
30 0 0 0
33 0 0 0
35 0 0 0
36 0 0 0
24 0 0 0
27 0 0 0
31 0 0 0
34 0 0 0
37 0 0 0
38 0 0 0
40 0 0 0
46 0 0 0
39 0 0 0
41 0 0 0
42 0 0 0
43 0 0 0
44 0 0 0
47 0 0 0
48 0 0 0
49 0 0 0
50 0 0 0
52 0 0 0
53 0 0 0
45 0 0 0
51 0 0 0
54 0 0 0
55 0 0 0
56 0 0 0
59 0 0 0
64 0 0 0
65 0 0 0
67 0 0 0
57 0 0 0
60 0 0 0
62 0 0 0
63 0 0 0
66 0 0 0
68 0 0 0
69 0 0 0
70 0 0 0
71 0 0 0
58 0 0 0
61 0 0 0
72 0 0 0
73 0 0 0
82 0 0 0
83 0 0 0
86 0 0 0
74 0 0 0
75 0 0 0
76 0 0 0
77 0 0 0
79 0 0 0
80 0 0 0
84 0 0 0
87 0 0 0
89 0 0 0
90 0 0 0
78 0 0 0
81 0 0 0
85 0 0 0
88 0 0 0
91 0 0 0
100 0 0 0
101 0 0 0
103 0 0 0
92 0 0 0
93 0 0 0
94 0 0 0
95 0 0 0
97 0 0 0
98 0 0 0
102 0 0 0
104 0 0 0
105 0 0 0
106 0 0 0
107 0 0 0
96 0 0 0
99 0 0 0
108 0 0 0
109 0 0 0
110 0 0 0
113 0 0 0
118 0 0 0
119 0 0 0
121 0 0 0
111 0 0 0
114 0 0 0
116 0 0 0
117 0 0 0
120 0 0 0
122 0 0 0
123 0 0 0
124 0 0 0
125 0 0 0
112 0 0 0
115 0 0 0
126 0 0 0
127 0 0 0
136 0 0 0
137 0 0 0
140 0 0 0
128 0 0 0
129 0 0 0
130 0 0 0
131 0 0 0
133 0 0 0
134 0 0 0
138 0 0 0
141 0 0 0
143 0 0 0
144 0 0 0
132 0 0 0
135 0 0 0
139 0 0 0
142 0 0 0
145 0 0 0
146 0 0 0
148 0 0 0
154 0 0 0
147 0 0 0
149 0 0 0
150 0 0 0
151 0 0 0
152 0 0 0
155 0 0 0
156 0 0 0
157 0 0 0
158 0 0 0
160 0 0 0
161 0 0 0
153 0 0 0
159 0 0 0
162 0 0 0
163 0 0 0
164 0 0 0
167 0 0 0
172 0 0 0
173 0 0 0
175 0 0 0
165 0 0 0
168 0 0 0
170 0 0 0
171 0 0 0
174 0 0 0
176 0 0 0
177 0 0 0
178 0 0 0
179 0 0 0
166 0 0 0
169 0 0 0
180 0 0 0
181 0 0 0
190 0 0 0
191 0 0 0
194 0 0 0
182 0 0 0
183 0 0 0
184 0 0 0
185 0 0 0
187 0 0 0
188 0 0 0
192 0 0 0
195 0 0 0
197 0 0 0
198 0 0 0
186 0 0 0
189 0 0 0
193 0 0 0
196 0 0 0
199 0 0 0
200 0 0 0
202 0 0 0
201 0 0 0
203 0 0 0
204 0 0 0
205 0 0 0
206 0 0 0
207 0 0 0
