128
Lattice="10.0551140859974 0.0 0.0 0.0 8.70798423642306 0.0 0.0 0.0 16.4127299718015" Properties=species:S:1:pos:R:3:forces:R:3 virial="95.37386487668967 1.3972079553654946e-09 2.1835882199790483e-14 1.3972079553654946e-09 95.37386487830241 -2.3328851496733824e-14 2.1835882199790483e-14 -2.3328851496733824e-14 93.65256535187022" label=1 energy=-473.75624922207 stress="-0.06636573690407659 -9.722447096587416e-13 -1.5194460400795736e-17 -9.722447096587416e-13 -0.06636573690519881 1.62333404723427e-17 -1.5194460400795736e-17 1.62333404723427e-17 -0.0651679736431982" free_energy=-473.75624922207 pbc="T T T"
Cu   5.02756000   8.70798000   0.00000000   0.00000000   0.00000000   0.00000000
Cu   5.02756000   8.70798000   8.20636000   0.00000000   0.00000000  -0.00000000
Cu   8.79822000   2.17700000   0.00000000  -0.00000000   0.00000000   0.00000000
Cu   8.79822000   2.17700000   8.20636000  -0.00000000   0.00000000   0.00000000
Cu   7.54134000   4.35399000   0.00000000  -0.00000000   0.00000000  -0.00000000
Cu   7.54134000   4.35399000   8.20636000  -0.00000000   0.00000000  -0.00000000
Cu  -3.77067000   6.53099000   16.41270000  -0.00000000  -0.00000000  -0.00000000
Cu  -3.77067000   6.53099000   8.20636000  -0.00000000  -0.00000000  -0.00000000
Cu  -2.51378000   8.70798000   16.41270000   0.00000000  -0.00000000  -0.00000000
Cu  -2.51378000   8.70798000   8.20636000   0.00000000  -0.00000000  -0.00000000
Cu   1.25689000   2.17700000   0.00000000  -0.00000000  -0.00000000  -0.00000000
Cu   1.25689000   2.17700000   8.20636000  -0.00000000  -0.00000000   0.00000000
Cu   0.00000000   4.35399000   0.00000000  -0.00000000   0.00000000  -0.00000000
Cu   0.00000000   4.35399000   8.20636000  -0.00000000   0.00000000  -0.00000000
Cu  -1.25689000   6.53099000   16.41270000  -0.00000000   0.00000000   0.00000000
Cu  -1.25689000   6.53099000   8.20636000  -0.00000000   0.00000000   0.00000000
Cu  -0.00000000   8.70798000   16.41270000   0.00000000   0.00000000   0.00000000
Cu  -0.00000000   8.70798000   8.20636000   0.00000000   0.00000000   0.00000000
Cu   3.77067000   2.17700000   16.41270000   0.00000000  -0.00000000   0.00000000
Cu   3.77067000   2.17700000   8.20636000   0.00000000  -0.00000000   0.00000000
Cu   2.51378000   4.35399000   0.00000000   0.00000000   0.00000000  -0.00000000
Cu   2.51378000   4.35399000   8.20636000   0.00000000   0.00000000  -0.00000000
Cu   1.25689000   6.53099000   0.00000000  -0.00000000   0.00000000  -0.00000000
Cu   1.25689000   6.53099000   8.20636000  -0.00000000   0.00000000  -0.00000000
Cu   7.54134000   0.00000000   0.00000000  -0.00000000  -0.00000000   0.00000000
Cu   7.54134000   0.00000000   8.20636000  -0.00000000  -0.00000000   0.00000000
Cu   6.28445000   2.17700000   0.00000000   0.00000000  -0.00000000  -0.00000000
Cu   6.28445000   2.17700000   8.20636000   0.00000000  -0.00000000  -0.00000000
Cu   5.02756000   4.35399000   16.41270000   0.00000000  -0.00000000   0.00000000
Cu   5.02756000   4.35399000   8.20636000   0.00000000  -0.00000000   0.00000000
Cu   3.77067000   6.53099000   0.00000000  -0.00000000  -0.00000000   0.00000000
Cu   3.77067000   6.53099000   8.20636000  -0.00000000  -0.00000000  -0.00000000
Cu   0.00000000   1.45133000   2.05159000  -0.00000000  -0.00000000   0.00000000
Cu   0.00000000   1.45133000   10.25800000  -0.00000000  -0.00000000  -0.00000000
Cu  -1.25689000   3.62833000   2.05159000   0.00000000   0.00000000  -0.00000000
Cu  -1.25689000   3.62833000   10.25800000   0.00000000   0.00000000   0.00000000
Cu  -2.51378000   5.80532000   2.05159000  -0.00000000  -0.00000000   0.00000000
Cu  -2.51378000   5.80532000   10.25800000  -0.00000000  -0.00000000   0.00000000
Cu  -3.77067000   7.98232000   2.05159000  -0.00000000   0.00000000  -0.00000000
Cu  -3.77067000   7.98232000   10.25800000  -0.00000000   0.00000000   0.00000000
Cu   2.51378000   1.45133000   2.05159000  -0.00000000   0.00000000   0.00000000
Cu   2.51378000   1.45133000   10.25800000  -0.00000000   0.00000000   0.00000000
Cu   1.25689000   3.62833000   2.05159000  -0.00000000  -0.00000000   0.00000000
Cu   1.25689000   3.62833000   10.25800000  -0.00000000  -0.00000000   0.00000000
Cu   0.00000000   5.80532000   2.05159000  -0.00000000   0.00000000   0.00000000
Cu   0.00000000   5.80532000   10.25800000  -0.00000000   0.00000000   0.00000000
Cu  -1.25689000   7.98232000   2.05159000   0.00000000  -0.00000000   0.00000000
Cu  -1.25689000   7.98232000   10.25800000   0.00000000  -0.00000000   0.00000000
Cu   5.02756000   1.45133000   2.05159000   0.00000000  -0.00000000   0.00000000
Cu   5.02756000   1.45133000   10.25800000   0.00000000  -0.00000000   0.00000000
Cu   3.77067000   3.62833000   2.05159000   0.00000000   0.00000000   0.00000000
Cu   3.77067000   3.62833000   10.25800000   0.00000000   0.00000000   0.00000000
Cu   2.51378000   5.80532000   2.05159000   0.00000000   0.00000000   0.00000000
Cu   2.51378000   5.80532000   10.25800000   0.00000000   0.00000000   0.00000000
Cu   1.25689000   7.98232000   2.05159000  -0.00000000   0.00000000   0.00000000
Cu   1.25689000   7.98232000   10.25800000  -0.00000000   0.00000000  -0.00000000
Cu   7.54134000   1.45133000   2.05159000  -0.00000000   0.00000000   0.00000000
Cu   7.54134000   1.45133000   10.25800000  -0.00000000   0.00000000   0.00000000
Cu   6.28445000   3.62833000   2.05159000   0.00000000  -0.00000000  -0.00000000
Cu   6.28445000   3.62833000   10.25800000   0.00000000  -0.00000000   0.00000000
Cu   5.02756000   5.80532000   2.05159000  -0.00000000  -0.00000000  -0.00000000
Cu   5.02756000   5.80532000   10.25800000  -0.00000000  -0.00000000   0.00000000
Cu   3.77067000   7.98232000   2.05159000  -0.00000000   0.00000000   0.00000000
Cu   3.77067000   7.98232000   10.25800000  -0.00000000   0.00000000   0.00000000
Cu   5.02756000   8.70798000   4.10318000   0.00000000   0.00000000   0.00000000
Cu   5.02756000   8.70798000   12.30950000   0.00000000   0.00000000  -0.00000000
Cu   8.79822000   2.17700000   4.10318000  -0.00000000   0.00000000  -0.00000000
Cu   8.79822000   2.17700000   12.30950000  -0.00000000   0.00000000  -0.00000000
Cu   7.54134000   4.35399000   4.10318000  -0.00000000   0.00000000   0.00000000
Cu   7.54134000   4.35399000   12.30950000  -0.00000000   0.00000000   0.00000000
Cu  -3.77067000   6.53099000   4.10318000  -0.00000000  -0.00000000   0.00000000
Cu  -3.77067000   6.53099000   12.30950000  -0.00000000  -0.00000000   0.00000000
Cu  -2.51378000   8.70798000   4.10318000   0.00000000  -0.00000000   0.00000000
Cu  -2.51378000   8.70798000   12.30950000   0.00000000  -0.00000000   0.00000000
Cu   1.25689000   2.17700000   4.10318000  -0.00000000  -0.00000000   0.00000000
Cu   1.25689000   2.17700000   12.30950000  -0.00000000  -0.00000000   0.00000000
Cu   0.00000000   4.35399000   4.10318000  -0.00000000   0.00000000   0.00000000
Cu   0.00000000   4.35399000   12.30950000  -0.00000000   0.00000000   0.00000000
Cu  -1.25689000   6.53099000   4.10318000  -0.00000000   0.00000000  -0.00000000
Cu  -1.25689000   6.53099000   12.30950000  -0.00000000   0.00000000  -0.00000000
Cu  -0.00000000   8.70798000   4.10318000   0.00000000   0.00000000  -0.00000000
Cu  -0.00000000   8.70798000   12.30950000   0.00000000   0.00000000  -0.00000000
Cu   3.77067000   2.17700000   4.10318000   0.00000000  -0.00000000  -0.00000000
Cu   3.77067000   2.17700000   12.30950000   0.00000000  -0.00000000  -0.00000000
Cu   2.51378000   4.35399000   4.10318000   0.00000000   0.00000000   0.00000000
Cu   2.51378000   4.35399000   12.30950000   0.00000000   0.00000000   0.00000000
Cu   1.25689000   6.53099000   4.10318000  -0.00000000   0.00000000   0.00000000
Cu   1.25689000   6.53099000   12.30950000  -0.00000000   0.00000000   0.00000000
Cu   7.54134000   0.00000000   4.10318000  -0.00000000  -0.00000000  -0.00000000
Cu   7.54134000   0.00000000   12.30950000  -0.00000000  -0.00000000  -0.00000000
Cu   6.28445000   2.17700000   4.10318000   0.00000000  -0.00000000   0.00000000
Cu   6.28445000   2.17700000   12.30950000   0.00000000  -0.00000000   0.00000000
Cu   5.02756000   4.35399000   4.10318000   0.00000000  -0.00000000  -0.00000000
Cu   5.02756000   4.35399000   12.30950000   0.00000000  -0.00000000  -0.00000000
Cu   3.77067000   6.53099000   4.10318000  -0.00000000  -0.00000000  -0.00000000
Cu   3.77067000   6.53099000   12.30950000  -0.00000000  -0.00000000  -0.00000000
Cu   1.25689000   0.72566500   6.15477000  -0.00000000  -0.00000000  -0.00000000
Cu   1.25689000   0.72566500   14.36110000  -0.00000000  -0.00000000  -0.00000000
Cu  -0.00000000   2.90266000   6.15477000   0.00000000   0.00000000   0.00000000
Cu  -0.00000000   2.90266000   14.36110000   0.00000000   0.00000000   0.00000000
Cu  -1.25689000   5.07966000   6.15477000  -0.00000000   0.00000000   0.00000000
Cu  -1.25689000   5.07966000   14.36110000  -0.00000000   0.00000000  -0.00000000
Cu  -2.51378000   7.25665000   6.15477000   0.00000000   0.00000000  -0.00000000
Cu  -2.51378000   7.25665000   14.36110000   0.00000000   0.00000000  -0.00000000
Cu   3.77067000   0.72566500   6.15477000   0.00000000   0.00000000  -0.00000000
Cu   3.77067000   0.72566500   14.36110000   0.00000000   0.00000000   0.00000000
Cu   2.51378000   2.90266000   6.15477000  -0.00000000  -0.00000000  -0.00000000
Cu   2.51378000   2.90266000   14.36110000  -0.00000000  -0.00000000   0.00000000
Cu   1.25689000   5.07966000   6.15477000   0.00000000   0.00000000   0.00000000
Cu   1.25689000   5.07966000   14.36110000   0.00000000   0.00000000  -0.00000000
Cu   0.00000000   7.25665000   6.15477000  -0.00000000   0.00000000   0.00000000
Cu   0.00000000   7.25665000   14.36110000  -0.00000000   0.00000000  -0.00000000
Cu   6.28445000   0.72566500   6.15477000  -0.00000000  -0.00000000   0.00000000
Cu   6.28445000   0.72566500   14.36110000  -0.00000000  -0.00000000  -0.00000000
Cu   5.02756000   2.90266000   6.15477000   0.00000000  -0.00000000  -0.00000000
Cu   5.02756000   2.90266000   14.36110000   0.00000000  -0.00000000  -0.00000000
Cu   3.77067000   5.07966000   6.15477000   0.00000000   0.00000000   0.00000000
Cu   3.77067000   5.07966000   14.36110000   0.00000000   0.00000000  -0.00000000
Cu   2.51378000   7.25665000   6.15477000  -0.00000000  -0.00000000   0.00000000
Cu   2.51378000   7.25665000   14.36110000  -0.00000000  -0.00000000  -0.00000000
Cu   8.79822000   0.72566500   6.15477000   0.00000000   0.00000000  -0.00000000
Cu   8.79822000   0.72566500   14.36110000   0.00000000   0.00000000   0.00000000
Cu   7.54134000   2.90266000   6.15477000  -0.00000000  -0.00000000   0.00000000
Cu   7.54134000   2.90266000   14.36110000  -0.00000000  -0.00000000  -0.00000000
Cu   6.28445000   5.07966000   6.15477000   0.00000000  -0.00000000   0.00000000
Cu   6.28445000   5.07966000   14.36110000   0.00000000  -0.00000000  -0.00000000
Cu   5.02756000   7.25665000   6.15477000   0.00000000  -0.00000000  -0.00000000
Cu   5.02756000   7.25665000   14.36110000   0.00000000  -0.00000000  -0.00000000
128
Lattice="10.1230561070024 0.0 0.0 0.0 8.7668237525979 0.0 0.0 0.0 16.52363016" Properties=species:S:1:pos:R:3:forces:R:3 virial="64.3972397462862 1.3012515594019455e-09 9.897151618681357e-15 1.3012515594019455e-09 64.3972397477888 -5.356896462893186e-14 9.897151618681357e-15 -5.356896462893186e-14 63.13252269547763" label=1 energy=-475.354347203231 stress="-0.04391449240689638 -8.873641471273509e-13 -6.7491773144445944e-18 -8.873641471273509e-13 -0.043914492407921044 3.653035284914048e-17 -6.7491773144445944e-18 3.653035284914048e-17 -0.04305204228413613" free_energy=-475.354347203231 pbc="T T T"
Cu   5.06153000   8.76682000   0.00000000   0.00000000   0.00000000  -0.00000000
Cu   5.06153000   8.76682000   8.26182000   0.00000000   0.00000000   0.00000000
Cu   8.85767000   2.19171000   0.00000000  -0.00000000   0.00000000   0.00000000
Cu   8.85767000   2.19171000   8.26182000  -0.00000000   0.00000000   0.00000000
Cu   7.59229000   4.38341000   0.00000000  -0.00000000   0.00000000  -0.00000000
Cu   7.59229000   4.38341000   8.26182000  -0.00000000   0.00000000  -0.00000000
Cu  -3.79615000   6.57512000   16.52360000  -0.00000000  -0.00000000  -0.00000000
Cu  -3.79615000   6.57512000   8.26182000  -0.00000000  -0.00000000  -0.00000000
Cu  -2.53076000   8.76682000   16.52360000   0.00000000  -0.00000000  -0.00000000
Cu  -2.53076000   8.76682000   8.26182000   0.00000000  -0.00000000  -0.00000000
Cu   1.26538000   2.19171000   0.00000000  -0.00000000  -0.00000000  -0.00000000
Cu   1.26538000   2.19171000   8.26182000  -0.00000000  -0.00000000  -0.00000000
Cu   0.00000000   4.38341000   0.00000000  -0.00000000   0.00000000  -0.00000000
Cu   0.00000000   4.38341000   8.26182000  -0.00000000   0.00000000  -0.00000000
Cu  -1.26538000   6.57512000   16.52360000  -0.00000000   0.00000000   0.00000000
Cu  -1.26538000   6.57512000   8.26182000  -0.00000000   0.00000000   0.00000000
Cu  -0.00000000   8.76682000   16.52360000   0.00000000   0.00000000   0.00000000
Cu  -0.00000000   8.76682000   8.26182000   0.00000000   0.00000000   0.00000000
Cu   3.79615000   2.19171000   16.52360000   0.00000000  -0.00000000   0.00000000
Cu   3.79615000   2.19171000   8.26182000   0.00000000  -0.00000000   0.00000000
Cu   2.53076000   4.38341000   0.00000000   0.00000000   0.00000000   0.00000000
Cu   2.53076000   4.38341000   8.26182000   0.00000000   0.00000000  -0.00000000
Cu   1.26538000   6.57512000   0.00000000  -0.00000000   0.00000000  -0.00000000
Cu   1.26538000   6.57512000   8.26182000  -0.00000000   0.00000000  -0.00000000
Cu   7.59229000   0.00000000   0.00000000  -0.00000000  -0.00000000   0.00000000
Cu   7.59229000   0.00000000   8.26182000  -0.00000000  -0.00000000   0.00000000
Cu   6.32691000   2.19171000   0.00000000   0.00000000  -0.00000000  -0.00000000
Cu   6.32691000   2.19171000   8.26182000   0.00000000  -0.00000000  -0.00000000
Cu   5.06153000   4.38341000   16.52360000   0.00000000  -0.00000000   0.00000000
Cu   5.06153000   4.38341000   8.26182000   0.00000000  -0.00000000   0.00000000
Cu   3.79615000   6.57512000   0.00000000  -0.00000000  -0.00000000   0.00000000
Cu   3.79615000   6.57512000   8.26182000  -0.00000000  -0.00000000  -0.00000000
Cu   0.00000000   1.46114000   2.06545000  -0.00000000  -0.00000000   0.00000000
Cu   0.00000000   1.46114000   10.32730000  -0.00000000  -0.00000000   0.00000000
Cu  -1.26538000   3.65284000   2.06545000   0.00000000   0.00000000   0.00000000
Cu  -1.26538000   3.65284000   10.32730000   0.00000000   0.00000000  -0.00000000
Cu  -2.53076000   5.84455000   2.06545000  -0.00000000  -0.00000000   0.00000000
Cu  -2.53076000   5.84455000   10.32730000  -0.00000000  -0.00000000   0.00000000
Cu  -3.79615000   8.03626000   2.06545000  -0.00000000   0.00000000   0.00000000
Cu  -3.79615000   8.03626000   10.32730000  -0.00000000   0.00000000  -0.00000000
Cu   2.53076000   1.46114000   2.06545000  -0.00000000   0.00000000   0.00000000
Cu   2.53076000   1.46114000   10.32730000  -0.00000000   0.00000000   0.00000000
Cu   1.26538000   3.65284000   2.06545000  -0.00000000  -0.00000000   0.00000000
Cu   1.26538000   3.65284000   10.32730000  -0.00000000  -0.00000000   0.00000000
Cu   0.00000000   5.84455000   2.06545000  -0.00000000   0.00000000   0.00000000
Cu   0.00000000   5.84455000   10.32730000  -0.00000000   0.00000000   0.00000000
Cu  -1.26538000   8.03626000   2.06545000   0.00000000  -0.00000000   0.00000000
Cu  -1.26538000   8.03626000   10.32730000   0.00000000  -0.00000000   0.00000000
Cu   5.06153000   1.46114000   2.06545000   0.00000000  -0.00000000   0.00000000
Cu   5.06153000   1.46114000   10.32730000   0.00000000  -0.00000000   0.00000000
Cu   3.79615000   3.65284000   2.06545000   0.00000000   0.00000000  -0.00000000
Cu   3.79615000   3.65284000   10.32730000   0.00000000   0.00000000   0.00000000
Cu   2.53076000   5.84455000   2.06545000   0.00000000   0.00000000   0.00000000
Cu   2.53076000   5.84455000   10.32730000   0.00000000   0.00000000   0.00000000
Cu   1.26538000   8.03626000   2.06545000  -0.00000000   0.00000000   0.00000000
Cu   1.26538000   8.03626000   10.32730000  -0.00000000   0.00000000   0.00000000
Cu   7.59229000   1.46114000   2.06545000  -0.00000000   0.00000000   0.00000000
Cu   7.59229000   1.46114000   10.32730000  -0.00000000   0.00000000  -0.00000000
Cu   6.32691000   3.65284000   2.06545000   0.00000000  -0.00000000   0.00000000
Cu   6.32691000   3.65284000   10.32730000   0.00000000  -0.00000000  -0.00000000
Cu   5.06153000   5.84455000   2.06545000  -0.00000000  -0.00000000   0.00000000
Cu   5.06153000   5.84455000   10.32730000  -0.00000000  -0.00000000   0.00000000
Cu   3.79615000   8.03626000   2.06545000  -0.00000000   0.00000000   0.00000000
Cu   3.79615000   8.03626000   10.32730000  -0.00000000   0.00000000   0.00000000
Cu   5.06153000   8.76682000   4.13091000   0.00000000   0.00000000  -0.00000000
Cu   5.06153000   8.76682000   12.39270000   0.00000000   0.00000000  -0.00000000
Cu   8.85767000   2.19171000   4.13091000  -0.00000000   0.00000000  -0.00000000
Cu   8.85767000   2.19171000   12.39270000  -0.00000000   0.00000000  -0.00000000
Cu   7.59229000   4.38341000   4.13091000  -0.00000000   0.00000000   0.00000000
Cu   7.59229000   4.38341000   12.39270000  -0.00000000   0.00000000   0.00000000
Cu  -3.79615000   6.57512000   4.13091000  -0.00000000  -0.00000000   0.00000000
Cu  -3.79615000   6.57512000   12.39270000  -0.00000000  -0.00000000   0.00000000
Cu  -2.53076000   8.76682000   4.13091000   0.00000000  -0.00000000   0.00000000
Cu  -2.53076000   8.76682000   12.39270000   0.00000000  -0.00000000   0.00000000
Cu   1.26538000   2.19171000   4.13091000  -0.00000000  -0.00000000  -0.00000000
Cu   1.26538000   2.19171000   12.39270000  -0.00000000  -0.00000000  -0.00000000
Cu   0.00000000   4.38341000   4.13091000  -0.00000000   0.00000000   0.00000000
Cu   0.00000000   4.38341000   12.39270000  -0.00000000   0.00000000   0.00000000
Cu  -1.26538000   6.57512000   4.13091000  -0.00000000   0.00000000  -0.00000000
Cu  -1.26538000   6.57512000   12.39270000  -0.00000000   0.00000000  -0.00000000
Cu  -0.00000000   8.76682000   4.13091000   0.00000000   0.00000000  -0.00000000
Cu  -0.00000000   8.76682000   12.39270000   0.00000000   0.00000000  -0.00000000
Cu   3.79615000   2.19171000   4.13091000   0.00000000  -0.00000000  -0.00000000
Cu   3.79615000   2.19171000   12.39270000   0.00000000  -0.00000000  -0.00000000
Cu   2.53076000   4.38341000   4.13091000   0.00000000   0.00000000  -0.00000000
Cu   2.53076000   4.38341000   12.39270000   0.00000000   0.00000000  -0.00000000
Cu   1.26538000   6.57512000   4.13091000  -0.00000000   0.00000000   0.00000000
Cu   1.26538000   6.57512000   12.39270000  -0.00000000   0.00000000   0.00000000
Cu   7.59229000   0.00000000   4.13091000  -0.00000000  -0.00000000  -0.00000000
Cu   7.59229000   0.00000000   12.39270000  -0.00000000  -0.00000000  -0.00000000
Cu   6.32691000   2.19171000   4.13091000   0.00000000  -0.00000000   0.00000000
Cu   6.32691000   2.19171000   12.39270000   0.00000000  -0.00000000   0.00000000
Cu   5.06153000   4.38341000   4.13091000   0.00000000  -0.00000000  -0.00000000
Cu   5.06153000   4.38341000   12.39270000   0.00000000  -0.00000000  -0.00000000
Cu   3.79615000   6.57512000   4.13091000  -0.00000000  -0.00000000  -0.00000000
Cu   3.79615000   6.57512000   12.39270000  -0.00000000  -0.00000000  -0.00000000
Cu   1.26538000   0.73056900   6.19636000  -0.00000000  -0.00000000   0.00000000
Cu   1.26538000   0.73056900   14.45820000  -0.00000000  -0.00000000  -0.00000000
Cu  -0.00000000   2.92227000   6.19636000   0.00000000   0.00000000   0.00000000
Cu  -0.00000000   2.92227000   14.45820000   0.00000000   0.00000000  -0.00000000
Cu  -1.26538000   5.11398000   6.19636000  -0.00000000   0.00000000   0.00000000
Cu  -1.26538000   5.11398000   14.45820000  -0.00000000   0.00000000  -0.00000000
Cu  -2.53076000   7.30569000   6.19636000   0.00000000   0.00000000   0.00000000
Cu  -2.53076000   7.30569000   14.45820000   0.00000000   0.00000000  -0.00000000
Cu   3.79615000   0.73056900   6.19636000   0.00000000   0.00000000   0.00000000
Cu   3.79615000   0.73056900   14.45820000   0.00000000   0.00000000  -0.00000000
Cu   2.53076000   2.92227000   6.19636000  -0.00000000  -0.00000000   0.00000000
Cu   2.53076000   2.92227000   14.45820000  -0.00000000  -0.00000000  -0.00000000
Cu   1.26538000   5.11398000   6.19636000   0.00000000   0.00000000   0.00000000
Cu   1.26538000   5.11398000   14.45820000   0.00000000   0.00000000  -0.00000000
Cu   0.00000000   7.30569000   6.19636000  -0.00000000   0.00000000   0.00000000
Cu   0.00000000   7.30569000   14.45820000  -0.00000000   0.00000000  -0.00000000
Cu   6.32691000   0.73056900   6.19636000  -0.00000000  -0.00000000   0.00000000
Cu   6.32691000   0.73056900   14.45820000  -0.00000000  -0.00000000  -0.00000000
Cu   5.06153000   2.92227000   6.19636000   0.00000000  -0.00000000   0.00000000
Cu   5.06153000   2.92227000   14.45820000   0.00000000  -0.00000000  -0.00000000
Cu   3.79615000   5.11398000   6.19636000   0.00000000   0.00000000   0.00000000
Cu   3.79615000   5.11398000   14.45820000   0.00000000   0.00000000  -0.00000000
Cu   2.53076000   7.30569000   6.19636000  -0.00000000  -0.00000000   0.00000000
Cu   2.53076000   7.30569000   14.45820000  -0.00000000  -0.00000000  -0.00000000
Cu   8.85767000   0.73056900   6.19636000   0.00000000   0.00000000   0.00000000
Cu   8.85767000   0.73056900   14.45820000   0.00000000   0.00000000   0.00000000
Cu   7.59229000   2.92227000   6.19636000  -0.00000000  -0.00000000   0.00000000
Cu   7.59229000   2.92227000   14.45820000  -0.00000000  -0.00000000  -0.00000000
Cu   6.32691000   5.11398000   6.19636000   0.00000000  -0.00000000   0.00000000
Cu   6.32691000   5.11398000   14.45820000   0.00000000  -0.00000000  -0.00000000
Cu   5.06153000   7.30569000   6.19636000   0.00000000  -0.00000000  -0.00000000
Cu   5.06153000   7.30569000   14.45820000   0.00000000  -0.00000000  -0.00000000
128
Lattice="10.1900981674598 0.0 0.0 0.0 8.82488388007606 0.0 0.0 0.0 16.6330613634284" Properties=species:S:1:pos:R:3:forces:R:3 virial="35.97164782541842 1.2176854427401372e-09 -6.021809224853849e-14 1.2176854427401372e-09 35.97164782682429 1.3354449633113222e-14 -6.021809224853849e-14 1.3354449633113222e-14 35.41883235951296" label=1 energy=-476.339716729625 stress="-0.024049207843844452 -8.140958802612396e-13 4.02594127317562e-17 -8.140958802612396e-13 -0.02404920784478436 -8.928251950691848e-18 4.02594127317562e-17 -8.928251950691848e-18 -0.02367961749025888" free_energy=-476.339716729625 pbc="T T T"
Cu   5.09505000   8.82488000   0.00000000   0.00000000   0.00000000  -0.00000000
Cu   5.09505000   8.82488000   8.31653000   0.00000000   0.00000000   0.00000000
Cu   8.91634000   2.20622000   0.00000000  -0.00000000   0.00000000   0.00000000
Cu   8.91634000   2.20622000   8.31653000  -0.00000000   0.00000000   0.00000000
Cu   7.64257000   4.41244000   0.00000000  -0.00000000   0.00000000  -0.00000000
Cu   7.64257000   4.41244000   8.31653000  -0.00000000   0.00000000  -0.00000000
Cu  -3.82129000   6.61866000   16.63310000  -0.00000000  -0.00000000  -0.00000000
Cu  -3.82129000   6.61866000   8.31653000  -0.00000000  -0.00000000  -0.00000000
Cu  -2.54752000   8.82488000   16.63310000   0.00000000  -0.00000000  -0.00000000
Cu  -2.54752000   8.82488000   8.31653000   0.00000000  -0.00000000  -0.00000000
Cu   1.27376000   2.20622000   0.00000000  -0.00000000  -0.00000000   0.00000000
Cu   1.27376000   2.20622000   8.31653000  -0.00000000  -0.00000000  -0.00000000
Cu   0.00000000   4.41244000   0.00000000  -0.00000000   0.00000000  -0.00000000
Cu   0.00000000   4.41244000   8.31653000  -0.00000000   0.00000000  -0.00000000
Cu  -1.27376000   6.61866000   16.63310000  -0.00000000   0.00000000   0.00000000
Cu  -1.27376000   6.61866000   8.31653000  -0.00000000   0.00000000   0.00000000
Cu  -0.00000000   8.82488000   16.63310000   0.00000000   0.00000000   0.00000000
Cu  -0.00000000   8.82488000   8.31653000   0.00000000   0.00000000   0.00000000
Cu   3.82129000   2.20622000   16.63310000   0.00000000  -0.00000000   0.00000000
Cu   3.82129000   2.20622000   8.31653000   0.00000000  -0.00000000   0.00000000
Cu   2.54752000   4.41244000   0.00000000   0.00000000   0.00000000   0.00000000
Cu   2.54752000   4.41244000   8.31653000   0.00000000   0.00000000   0.00000000
Cu   1.27376000   6.61866000   0.00000000  -0.00000000   0.00000000  -0.00000000
Cu   1.27376000   6.61866000   8.31653000  -0.00000000   0.00000000  -0.00000000
Cu   7.64257000   0.00000000   0.00000000  -0.00000000  -0.00000000   0.00000000
Cu   7.64257000   0.00000000   8.31653000  -0.00000000  -0.00000000   0.00000000
Cu   6.36881000   2.20622000   0.00000000   0.00000000  -0.00000000  -0.00000000
Cu   6.36881000   2.20622000   8.31653000   0.00000000  -0.00000000  -0.00000000
Cu   5.09505000   4.41244000   16.63310000   0.00000000  -0.00000000   0.00000000
Cu   5.09505000   4.41244000   8.31653000   0.00000000  -0.00000000   0.00000000
Cu   3.82129000   6.61866000   0.00000000  -0.00000000  -0.00000000  -0.00000000
Cu   3.82129000   6.61866000   8.31653000  -0.00000000  -0.00000000   0.00000000
Cu   0.00000000   1.47081000   2.07913000  -0.00000000  -0.00000000   0.00000000
Cu   0.00000000   1.47081000   10.39570000  -0.00000000  -0.00000000   0.00000000
Cu  -1.27376000   3.67703000   2.07913000   0.00000000   0.00000000   0.00000000
Cu  -1.27376000   3.67703000   10.39570000   0.00000000   0.00000000  -0.00000000
Cu  -2.54752000   5.88326000   2.07913000  -0.00000000  -0.00000000   0.00000000
Cu  -2.54752000   5.88326000   10.39570000  -0.00000000  -0.00000000   0.00000000
Cu  -3.82129000   8.08948000   2.07913000  -0.00000000   0.00000000   0.00000000
Cu  -3.82129000   8.08948000   10.39570000  -0.00000000   0.00000000  -0.00000000
Cu   2.54752000   1.47081000   2.07913000  -0.00000000   0.00000000   0.00000000
Cu   2.54752000   1.47081000   10.39570000  -0.00000000   0.00000000   0.00000000
Cu   1.27376000   3.67703000   2.07913000  -0.00000000  -0.00000000   0.00000000
Cu   1.27376000   3.67703000   10.39570000  -0.00000000  -0.00000000  -0.00000000
Cu   0.00000000   5.88326000   2.07913000  -0.00000000   0.00000000   0.00000000
Cu   0.00000000   5.88326000   10.39570000  -0.00000000   0.00000000   0.00000000
Cu  -1.27376000   8.08948000   2.07913000   0.00000000  -0.00000000   0.00000000
Cu  -1.27376000   8.08948000   10.39570000   0.00000000  -0.00000000  -0.00000000
Cu   5.09505000   1.47081000   2.07913000   0.00000000  -0.00000000   0.00000000
Cu   5.09505000   1.47081000   10.39570000   0.00000000  -0.00000000   0.00000000
Cu   3.82129000   3.67703000   2.07913000   0.00000000   0.00000000  -0.00000000
Cu   3.82129000   3.67703000   10.39570000   0.00000000   0.00000000   0.00000000
Cu   2.54752000   5.88326000   2.07913000   0.00000000   0.00000000   0.00000000
Cu   2.54752000   5.88326000   10.39570000   0.00000000   0.00000000  -0.00000000
Cu   1.27376000   8.08948000   2.07913000  -0.00000000   0.00000000   0.00000000
Cu   1.27376000   8.08948000   10.39570000  -0.00000000   0.00000000  -0.00000000
Cu   7.64257000   1.47081000   2.07913000  -0.00000000   0.00000000   0.00000000
Cu   7.64257000   1.47081000   10.39570000  -0.00000000   0.00000000  -0.00000000
Cu   6.36881000   3.67703000   2.07913000   0.00000000  -0.00000000   0.00000000
Cu   6.36881000   3.67703000   10.39570000   0.00000000  -0.00000000   0.00000000
Cu   5.09505000   5.88326000   2.07913000  -0.00000000  -0.00000000   0.00000000
Cu   5.09505000   5.88326000   10.39570000  -0.00000000  -0.00000000  -0.00000000
Cu   3.82129000   8.08948000   2.07913000  -0.00000000   0.00000000  -0.00000000
Cu   3.82129000   8.08948000   10.39570000  -0.00000000   0.00000000  -0.00000000
Cu   5.09505000   8.82488000   4.15827000   0.00000000   0.00000000   0.00000000
Cu   5.09505000   8.82488000   12.47480000   0.00000000   0.00000000   0.00000000
Cu   8.91634000   2.20622000   4.15827000  -0.00000000   0.00000000  -0.00000000
Cu   8.91634000   2.20622000   12.47480000  -0.00000000   0.00000000  -0.00000000
Cu   7.64257000   4.41244000   4.15827000  -0.00000000   0.00000000   0.00000000
Cu   7.64257000   4.41244000   12.47480000  -0.00000000   0.00000000   0.00000000
Cu  -3.82129000   6.61866000   4.15827000  -0.00000000  -0.00000000   0.00000000
Cu  -3.82129000   6.61866000   12.47480000  -0.00000000  -0.00000000   0.00000000
Cu  -2.54752000   8.82488000   4.15827000   0.00000000  -0.00000000   0.00000000
Cu  -2.54752000   8.82488000   12.47480000   0.00000000  -0.00000000   0.00000000
Cu   1.27376000   2.20622000   4.15827000  -0.00000000  -0.00000000   0.00000000
Cu   1.27376000   2.20622000   12.47480000  -0.00000000  -0.00000000  -0.00000000
Cu   0.00000000   4.41244000   4.15827000  -0.00000000   0.00000000   0.00000000
Cu   0.00000000   4.41244000   12.47480000  -0.00000000   0.00000000   0.00000000
Cu  -1.27376000   6.61866000   4.15827000  -0.00000000   0.00000000  -0.00000000
Cu  -1.27376000   6.61866000   12.47480000  -0.00000000   0.00000000  -0.00000000
Cu  -0.00000000   8.82488000   4.15827000   0.00000000   0.00000000  -0.00000000
Cu  -0.00000000   8.82488000   12.47480000   0.00000000   0.00000000  -0.00000000
Cu   3.82129000   2.20622000   4.15827000   0.00000000  -0.00000000  -0.00000000
Cu   3.82129000   2.20622000   12.47480000   0.00000000  -0.00000000  -0.00000000
Cu   2.54752000   4.41244000   4.15827000   0.00000000   0.00000000  -0.00000000
Cu   2.54752000   4.41244000   12.47480000   0.00000000   0.00000000  -0.00000000
Cu   1.27376000   6.61866000   4.15827000  -0.00000000   0.00000000   0.00000000
Cu   1.27376000   6.61866000   12.47480000  -0.00000000   0.00000000   0.00000000
Cu   7.64257000   0.00000000   4.15827000  -0.00000000  -0.00000000  -0.00000000