ITEM: TIMESTEP
0
ITEM: NUMBER OF ATOMS
135
ITEM: BOX BOUNDS pp pp pp
0.0000000000000000e+00 1.1436527999999999e+01
0.0000000000000000e+00 1.1745825000000000e+01
0.0000000000000000e+00 1.1261291999999999e+01
ITEM: ATOMS id type x y z fx fy fz v_fmag
1 1 0.320936 11.7005 2.14436 -9.2202e-05 -4.11869e-05 -0.00011081 0.000149921
2 1 8.03776 6.55938 10.2185 -3.2151e-05 1.97263e-05 2.08016e-06 3.77776e-05
3 1 9.02284 7.81355 8.2534 -2.61666e-05 4.13146e-05 1.8654e-05 5.23408e-05
4 1 7.64897 6.36296 6.78259 -3.29657e-05 3.61521e-05 9.70559e-06 4.98789e-05
5 1 8.57461 7.62512 4.74033 4.57368e-05 7.67846e-06 -8.9337e-06 4.72295e-05
6 1 8.4381 6.73472 2.42093 -3.04108e-06 1.30549e-05 1.26914e-05 1.84594e-05
7 1 9.4135 8.01802 0.420659 -1.11467e-05 2.58109e-06 -2.43809e-05 2.69321e-05
8 1 8.18102 4.04998 10.351 -2.6764e-05 8.69404e-06 4.54724e-05 5.34756e-05
9 1 9.20542 5.34875 8.4155 -5.71245e-05 3.42501e-05 -1.77632e-05 6.89334e-05
10 1 6.58305 4.21459 6.46549 -5.80563e-05 1.89646e-05 7.29412e-06 6.15093e-05
11 1 7.49989 5.48185 4.45866 -1.76727e-05 -5.62971e-07 2.96696e-05 3.45388e-05
12 1 6.08882 4.06139 2.95988 -3.12505e-05 -6.02856e-05 3.57172e-05 7.67246e-05
13 1 9.53239 5.56802 0.546416 2.66387e-05 -5.61891e-05 4.52256e-05 7.68908e-05
14 1 7.20442 1.75106 10.1628 -3.37883e-05 5.02493e-05 2.56421e-05 6.57583e-05
15 1 8.1716 3.17995 8.09695 1.30183e-05 -1.69917e-06 3.03669e-06 1.34753e-05
16 1 7.91083 9.93833 1.07371 7.08671e-06 2.07469e-05 2.22031e-05 3.12031e-05
17 1 6.78875 1.79987 6.55262 -1.15153e-05 1.58931e-05 3.54943e-05 4.0559e-05
18 1 6.45343 1.6875 3.01968 -3.96931e-05 -1.65024e-05 5.46248e-05 6.95107e-05
19 1 9.75204 3.15862 0.700383 -2.50417e-05 0.000169049 6.0941e-05 0.000181434
20 1 8.34435 0.787674 8.16572 3.2192e-08 7.41509e-05 9.37765e-06 7.47415e-05
21 1 8.10472 0.704066 4.56193 3.3188e-05 -3.62271e-05 -2.48449e-05 5.50556e-05
22 1 7.71835 0.58624 1.0078 4.04799e-05 2.95043e-06 7.01351e-06 4.11888e-05
23 1 6.33585 11.0793 10.674 6.22097e-05 -9.24866e-06 -3.32159e-05 7.11258e-05
24 1 4.78538 10.9417 6.86027 -1.39049e-05 -6.35887e-06 -1.43352e-05 2.0959e-05
25 1 4.29706 10.8071 3.34525 3.27781e-05 -8.433e-06 -7.83418e-05 8.53403e-05
26 1 5.42046 8.79937 10.4818 4.96481e-05 -1.74894e-05 -3.07678e-05 6.09711e-05
27 1 8.89528 10.2396 8.07951 2.40228e-06 -3.73179e-05 3.24973e-05 4.95427e-05
28 1 7.47825 8.77981 6.61018 4.8093e-05 2.10466e-05 -3.3291e-05 6.21626e-05
29 1 5.88829 9.77068 4.98241 3.38648e-05 3.99016e-05 1.32654e-05 5.39901e-05
30 1 4.5134 8.37427 3.48756 2.46263e-05 5.94651e-06 -3.99111e-05 4.72727e-05
31 1 5.4648 9.64908 1.48855 8.87606e-06 6.38664e-05 9.05084e-06 6.51124e-05
32 1 7.70664 3.08077 4.57241 -2.2308e-05 -3.27772e-05 -5.49665e-05 6.7774e-05
33 1 5.53794 6.29042 10.6007 -1.41495e-06 4.89267e-05 5.65254e-06 4.92725e-05
34 1 7.01152 8.62225 3.11357 3.30134e-05 1.15563e-05 1.34698e-06 3.50036e-05
35 1 9.97468 9.06242 6.21637 3.67511e-05 -2.80211e-06 1.55076e-05 3.99872e-05
36 1 9.27758 11.3076 2.60991 3.8268e-05 1.84463e-05 -2.50095e-05 4.92969e-05
37 1 10.4007 9.33568 9.70576 -1.62871e-05 4.07397e-05 -5.76306e-05 7.24311e-05
38 1 0.99975 9.3569 5.80701 7.16843e-06 -3.15798e-05 -2.64941e-05 4.18403e-05
39 1 10.8599 10.3363 4.19135 2.60061e-05 3.58258e-06 -3.67714e-05 4.51806e-05
40 1 9.48107 8.8989 2.70621 -5.1626e-07 -1.29045e-05 -1.98864e-05 2.3712e-05
41 1 10.3802 10.2317 0.672484 4.45309e-05 6.74098e-05 1.53556e-05 8.22367e-05
42 1 10.5448 6.81794 9.85913 8.0589e-07 -1.10682e-05 -6.647e-07 1.11174e-05
43 1 0.072454 8.10176 7.86729 -4.34254e-06 4.42986e-05 5.94307e-05 7.42511e-05
44 1 10.1255 6.64751 6.37604 -1.181e-05 1.08937e-06 2.35914e-05 2.64048e-05
45 1 10.9342 6.98803 2.01519 -2.3692e-06 -1.11725e-05 -1.64918e-05 2.00603e-05
46 1 0.479915 8.31106 0.0278739 2.25919e-05 -5.06632e-05 -1.34188e-05 5.7072e-05
47 1 10.749 4.26712 10.0522 -7.89044e-05 1.58615e-05 -1.6414e-06 8.04996e-05
48 1 0.22236 5.64301 8.00204 -3.1315e-05 1.3466e-06 2.8484e-05 4.2353e-05
49 1 9.09159 4.47593 6.10028 8.71327e-06 3.85945e-06 2.28227e-05 2.47324e-05
50 1 8.38832 10.0385 4.61414 8.23264e-06 -3.93549e-05 -2.34769e-05 4.65591e-05
51 1 9.99496 5.74299 4.04341 -9.18542e-06 6.93241e-06 3.69939e-05 3.87425e-05
52 1 9.68921 2.03432 9.78788 -2.171e-05 3.21428e-05 -6.82934e-05 7.85396e-05
53 1 10.69 3.42881 7.79425 -8.41658e-05 -1.72722e-05 -1.43379e-05 8.71079e-05
54 1 9.30674 2.08179 6.18262 -1.81428e-05 -2.42947e-05 1.16307e-05 3.24757e-05
55 1 10.1725 3.34833 4.15771 1.21335e-06 -3.40953e-05 5.86972e-06 3.46182e-05
56 1 8.95315 1.94829 2.60718 3.29243e-05 -5.70417e-06 1.55105e-05 3.68391e-05
57 1 11.067 4.52175 2.1357 -6.69084e-05 -3.36703e-05 -4.17578e-05 8.57563e-05
58 1 10.8385 1.0701 7.86619 -4.39845e-05 5.89844e-05 4.28466e-05 8.51448e-05
59 1 10.6154 1.00978 4.08693 -1.42449e-05 3.18968e-05 5.1541e-06 3.53113e-05
60 1 10.2187 0.890112 0.627055 0.000120399 -0.000152027 6.5191e-05 0.000204592
61 1 8.82802 11.3671 10.2717 2.43807e-05 6.81427e-06 2.66846e-05 3.67821e-05
62 1 7.23548 11.1884 6.49344 2.95171e-05 9.12088e-06 2.87046e-07 3.08955e-05
63 1 6.81038 11.0413 3.01872 -1.66219e-05 9.79425e-06 3.91402e-06 1.96859e-05
64 1 7.91475 9.0556 10.0983 1.62821e-05 2.37698e-05 -2.39602e-05 3.74727e-05
65 1 11.3625 10.523 7.71265 5.11897e-05 9.12981e-06 5.64308e-06 5.23028e-05
66 1 8.57207 4.3343 2.56002 -1.89837e-05 -1.87251e-05 2.77877e-06 2.68091e-05
67 1 9.73484 11.4831 6.11125 8.99563e-06 -2.19924e-05 -2.41048e-05 3.38471e-05
68 1 6.5285 7.55751 8.63627 7.37099e-06 -3.38252e-05 -8.09763e-06 3.55535e-05
69 1 6.07573 7.36386 5.144 -2.22024e-05 1.48486e-05 7.94914e-06 2.78678e-05
70 1 1.67586 3.72129 7.34057 -8.52922e-05 -4.45037e-05 6.64564e-05 0.000116926
71 1 2.5485 4.97023 5.26564 1.26612e-05 -6.0092e-06 3.4439e-05 3.71814e-05
72 1 1.14164 3.56036 3.72871 5.00831e-05 -0.000124982 4.19227e-05 0.000141019
73 1 4.5475 5.00499 1.30649 9.41813e-06 9.45344e-06 7.15303e-05 7.27644e-05
74 1 2.46642 0.318702 9.68861 1.71e-05 3.54639e-05 1.11716e-06 3.93871e-05
75 1 3.25463 2.60707 8.95635 -6.3654e-05 -3.04263e-05 -2.21319e-05 7.39419e-05
76 1 1.77288 1.34835 7.53698 -4.07623e-06 -2.76395e-05 1.03087e-05 2.97796e-05
77 1 2.71931 2.55821 5.38866 -5.07702e-05 -4.86132e-05 -3.98829e-07 7.02923e-05
78 1 1.58857 1.29483 3.59249 5.70623e-05 0.000103828 4.4553e-05 0.000126576
79 1 4.73249 2.62572 1.42814 1.10267e-05 4.6829e-05 -3.29631e-05 5.8319e-05
80 1 3.97279 10.0066 8.95792 3.61071e-06 -1.58838e-05 2.31019e-05 2.82671e-05
81 1 3.13475 0.218579 5.31469 4.7419e-05 -3.38642e-05 -2.14123e-05 6.20793e-05
82 1 2.69927 0.861562 1.21634 -5.53076e-06 -4.71871e-05 1.76783e-05 5.06925e-05
83 1 1.43487 10.6393 0.31291 -8.20083e-05 1.62083e-05 -2.40899e-05 8.69965e-05
84 1 4.1597 4.84602 9.166 -4.16651e-06 3.06097e-05 2.13143e-05 3.75315e-05
85 1 2.94092 8.54884 10.8834 5.36114e-05 -3.10757e-05 -1.63417e-05 6.40853e-05
86 1 11.0498 7.90618 4.31975 2.87161e-05 -4.32778e-05 1.75513e-07 5.19385e-05
87 1 0.497594 9.20421 2.28057 -1.67517e-05 2.8534e-06 -2.92534e-05 3.38308e-05
88 1 1.57721 7.08351 9.46095 2.51266e-05 2.72187e-07 2.98696e-05 3.90335e-05
89 1 1.15155 6.92839 5.95437 -4.2613e-05 2.33415e-05 -2.39777e-05 5.41814e-05
90 1 1.02772 5.97344 3.62017 2.40596e-05 4.29427e-05 2.66834e-06 4.92956e-05
91 1 0.600582 5.75336 0.175359 2.74564e-05 -6.81738e-05 -9.56193e-06 7.41145e-05
92 1 1.71679 4.52456 9.60983 -2.42182e-05 -1.55676e-07 5.91744e-06 2.49311e-05
93 1 0.110056 4.74575 5.69368 -1.74879e-05 3.75218e-05 9.92326e-06 4.25698e-05
94 1 2.07804 4.65433 1.69743 -4.41708e-05 -7.1161e-07 2.41642e-06 4.42425e-05
95 1 0.802521 2.22906 9.90526 -6.11154e-05 3.03012e-05 2.86255e-06 6.82748e-05
96 1 0.303276 2.34847 5.79666 -8.06973e-06 1.11721e-05 -5.48349e-06 1.48326e-05
97 1 0.720467 2.42544 1.30626 4.62011e-05 2.05201e-07 1.45692e-05 4.84442e-05
98 1 1.46511 9.66325 9.35342 1.77812e-05 -6.50613e-06 -2.74989e-05 3.3387e-05
99 1 0.745207 0.0214447 5.71312 4.76693e-05 4.73413e-05 -6.18639e-05 9.13274e-05
100 1 2.52786 8.4002 7.47659 2.17825e-05 -9.38644e-06 1.23016e-06 2.37507e-05
101 1 5.14412 6.1285 7.16797 -5.56799e-06 -1.33625e-05 -1.66381e-05 2.20541e-05
102 1 2.87315 3.14405 0.00903897 -4.66522e-06 1.05435e-05 6.26583e-07 1.15465e-05
103 1 3.46993 6.18437 3.20736 -2.54711e-05 1.52958e-05 3.81757e-05 4.83748e-05
104 1 5.94687 6.46547 2.81217 -3.36765e-06 -3.04068e-05 1.7118e-05 3.50562e-05
105 1 6.91714 7.73523 0.807098 6.47743e-06 1.13686e-05 3.34626e-05 3.59297e-05
106 1 5.60675 3.74195 10.7224 -4.82702e-05 4.03796e-05 2.57113e-05 6.79823e-05
107 1 6.67551 5.09858 8.7711 -5.4285e-05 3.83238e-05 -3.67144e-06 6.65512e-05
108 1 4.1132 3.95213 6.88801 -1.80829e-05 1.28137e-05 2.40749e-05 3.27228e-05
109 1 4.99974 5.21105 4.84632 -3.92838e-05 1.686e-05 4.90657e-05 6.50762e-05
110 1 3.58574 3.74925 3.32728 -1.44146e-05 -2.07413e-06 3.08101e-05 3.40785e-05
111 1 7.03674 5.28984 0.919634 -3.51734e-06 8.022e-06 1.16032e-05 1.45382e-05
112 1 4.64895 1.3727 10.5382 3.26399e-05 5.20614e-06 -6.39154e-05 7.19558e-05
113 1 5.70253 2.90734 8.48084 -3.62765e-05 -4.34021e-05 1.33125e-05 5.81116e-05
114 1 4.25839 1.52171 7.01114 -2.09322e-05 -6.81563e-06 5.93968e-05 6.3345e-05
115 1 5.18784 2.79674 4.96208 -3.36338e-05 -4.04176e-06 3.20721e-05 4.66496e-05
116 1 3.95151 1.39871 3.32489 -2.77905e-05 3.88362e-05 -1.46295e-05 4.99458e-05
117 1 7.22628 2.89568 1.06112 -3.61821e-05 -1.08109e-06 -2.70029e-06 3.62988e-05
118 1 4.4222 7.47757 1.19959 6.14935e-05 -1.05393e-05 1.46805e-05 6.40941e-05
119 1 5.81882 0.508289 8.57609 4.71075e-05 2.41788e-05 -1.74305e-06 5.2979e-05
120 1 5.26198 0.322091 1.42099 3.00962e-05 -1.67692e-05 -7.73693e-05 8.46936e-05
121 1 3.88643 10.7867 11.215 4.3343e-05 -5.77297e-06 -5.044e-05 6.67543e-05
122 1 2.37058 10.8288 7.36579 3.47714e-05 -3.39449e-05 6.7009e-06 4.90532e-05
123 1 1.86124 10.6346 3.72958 5.61304e-05 -6.26344e-05 -1.06744e-05 8.47799e-05
124 1 1.97167 7.21904 1.60663 -4.08001e-05 -3.53639e-05 -5.1272e-06 5.42359e-05
125 1 6.43789 9.98173 8.4761 3.62114e-05 -5.36705e-05 -5.88502e-05 8.74937e-05
126 1 4.9768 8.56378 7.0454 5.22618e-05 5.06532e-06 1.18416e-05 5.38254e-05
127 1 3.41609 9.56462 5.38557 9.10755e-06 2.11587e-06 -4.12638e-05 4.23098e-05
128 1 2.05943 8.16733 3.88399 2.93914e-05 -6.07789e-05 -2.41132e-05 7.16894e-05
129 1 2.94865 9.49242 1.85982 1.78056e-06 -2.20821e-05 -4.20754e-05 4.75514e-05
130 1 3.06044 5.98582 11.0129 1.74455e-05 -7.31505e-06 4.88701e-06 1.95381e-05
131 1 4.04215 7.37236 9.0421 3.62769e-05 1.08867e-05 1.63124e-05 4.12386e-05
132 1 2.67404 5.92119 7.57377 -1.16858e-05 -8.63431e-06 -2.78288e-05 3.13935e-05
133 1 3.59827 7.14874 5.53703 -3.51876e-05 -1.95497e-05 -3.41774e-05 5.28058e-05
134 1 5.59244 0.432723 4.92851 -2.20831e-05 -2.80804e-05 -3.5368e-06 3.58982e-05
135 1 11.3596 11.6527 9.94393 4.69702e-05 4.51372e-05 -4.68775e-05 8.02563e-05
