ITEM: TIMESTEP
0
ITEM: NUMBER OF ATOMS
147
ITEM: BOX BOUNDS pp pp pp
0.0000000000000000e+00 1.1400361000000000e+01
0.0000000000000000e+00 1.2098903999999999e+01
0.0000000000000000e+00 1.2816801000000000e+01
ITEM: ATOMS id type x y z fx fy fz v_fmag
1 1 1.03854 6.95841 4.11146 -3.65821e-05 -6.16825e-06 2.50762e-06 3.71832e-05
2 1 8.22496 10.5296 7.76001 -4.03461e-05 -4.6535e-05 -1.40786e-06 6.1606e-05
3 1 6.18077 9.03035 10.2036 -1.0484e-06 -1.9498e-05 -9.94058e-09 1.95262e-05
4 1 7.42039 10.4026 12.0768 3.73073e-05 5.18158e-06 2.16295e-05 4.34341e-05
5 1 6.17001 11.2383 1.26319 -2.62743e-05 3.03802e-05 -1.0458e-05 4.1505e-05
6 1 5.36348 11.077 5.5792 4.52599e-05 2.56453e-05 5.41858e-06 5.2302e-05
7 1 6.95086 11.4053 9.78222 3.09604e-05 -5.52471e-05 -2.74534e-05 6.90252e-05
8 1 7.06216 9.19518 5.85404 2.49484e-05 3.88368e-05 -6.47219e-06 4.66113e-05
9 1 9.38545 2.14278 0.702973 -1.86067e-05 1.59753e-05 2.11039e-05 3.23542e-05
10 1 9.00333 0.770066 7.30929 -9.80258e-06 1.89829e-05 2.54546e-05 3.32322e-05
11 1 8.1778 0.74593 11.6592 2.91779e-05 -4.14126e-06 -2.44633e-05 3.83008e-05
12 1 0.402201 2.67167 0.644173 -2.38934e-05 -2.79064e-05 -7.19015e-07 3.67448e-05
13 1 8.09682 2.84464 2.73216 2.72166e-05 3.34105e-05 3.57851e-05 5.60141e-05
14 1 9.24115 4.15905 4.62188 -1.08532e-05 -4.69214e-05 8.65345e-06 4.89315e-05
15 1 8.47994 1.80401 5.04336 5.68531e-06 4.12805e-05 2.60775e-05 4.91573e-05
16 1 9.78506 0.993957 3.06313 3.01469e-05 1.94015e-05 1.7231e-05 3.97764e-05
17 1 6.68664 10.2178 3.52956 4.12946e-05 4.19456e-05 1.55747e-05 6.08872e-05
18 1 5.55267 8.88362 1.66018 -2.23292e-05 -2.81638e-05 3.01796e-05 4.69319e-05
19 1 6.78109 8.03808 12.4732 1.86514e-05 -2.02725e-05 1.09606e-05 2.96477e-05
20 1 7.18523 2.64988 7.06763 4.16874e-05 4.5352e-06 -1.10451e-05 4.33636e-05
21 1 5.2633 1.17083 9.50068 -5.1915e-05 8.40664e-06 1.2515e-06 5.26062e-05
22 1 6.49945 2.56055 11.3599 -1.50285e-05 1.12564e-05 4.14148e-06 1.92279e-05
23 1 5.99703 5.70858 0.0899682 -1.15509e-05 -1.92746e-06 4.03801e-05 4.20439e-05
24 1 6.46313 4.69521 2.40809 8.76694e-06 2.72198e-05 3.50435e-05 4.52308e-05
25 1 7.60163 6.01022 4.26198 -2.45356e-05 -4.22827e-06 1.84397e-05 3.09822e-05
26 1 5.49795 4.51906 6.779 2.31285e-05 3.24281e-05 -2.8775e-06 3.99348e-05
27 1 6.69298 5.85625 8.62592 -2.64974e-05 -3.47058e-05 3.14021e-05 5.37838e-05
28 1 5.95828 3.52861 9.09182 -2.77494e-05 -4.23829e-05 -7.63173e-06 5.12306e-05
29 1 7.27248 4.90182 10.8993 -3.66005e-05 -5.95153e-06 8.41672e-06 3.80244e-05
30 1 4.792 6.5383 2.10522 1.26173e-05 3.4905e-06 -2.02103e-05 2.40798e-05
31 1 8.37363 8.34638 3.82063 9.65037e-06 2.88894e-05 5.13841e-06 3.0889e-05
32 1 6.28734 6.85989 6.30021 -2.98747e-05 -3.35598e-05 -5.65527e-06 4.52851e-05
33 1 7.45506 8.17762 8.17883 -2.49551e-06 -3.43542e-05 3.29177e-05 4.76447e-05
34 1 5.45374 6.69407 10.639 -8.04648e-06 -8.48372e-06 -5.52854e-06 1.29338e-05
35 1 9.59369 3.13097 6.91733 2.18136e-06 -4.18876e-05 2.64161e-05 4.95695e-05
36 1 6.04713 1.33246 5.19399 -3.34558e-05 -4.12581e-05 -1.19162e-05 5.44382e-05
37 1 7.72893 1.66089 9.34868 1.88588e-05 -3.3953e-05 3.79114e-05 5.42746e-05
38 1 8.59095 6.21853 12.7087 -4.05085e-06 5.43751e-05 -1.91473e-06 5.45594e-05
39 1 7.79368 11.5399 5.4397 -5.25029e-05 -4.94506e-05 1.09911e-05 7.2957e-05
40 1 9.38169 11.8668 9.66475 -4.74889e-05 6.05195e-06 2.14672e-05 5.24659e-05
41 1 10.6373 1.30681 11.5027 2.06348e-05 9.75484e-06 2.55705e-05 3.42753e-05
42 1 10.5443 3.3438 2.66524 4.16658e-06 2.00293e-05 6.91561e-06 2.15953e-05
43 1 10.9229 2.27164 5.05761 -4.77378e-05 -5.30939e-05 1.97682e-06 7.14266e-05
44 1 10.1959 2.06495 9.07535 -6.64685e-05 1.79849e-05 4.60828e-05 8.28561e-05
45 1 8.62485 11.7985 1.15201 -3.94236e-05 9.14083e-06 -3.85078e-05 5.58625e-05
46 1 0.275229 4.62055 4.62486 9.08461e-06 5.52043e-05 1.911e-05 5.91205e-05
47 1 10.7908 4.4534 9.77873 -1.09162e-05 -1.36077e-06 3.51409e-05 3.68225e-05
48 1 9.73751 7.53621 1.75839 1.81142e-05 2.49156e-05 3.01778e-05 4.31232e-05
49 1 11.1607 7.76489 6.13421 -2.52615e-05 -6.86405e-05 -2.07027e-05 7.60149e-05
50 1 10.4433 6.63132 10.9471 2.12708e-05 2.80659e-05 -7.66606e-06 3.60404e-05
51 1 10.5555 9.96326 1.30913 -1.40522e-05 -1.19404e-05 1.79378e-05 2.57255e-05
52 1 11.0143 9.78518 10.1564 4.17738e-05 3.80989e-05 -1.9498e-05 5.98059e-05
53 1 10.3905 5.43803 6.61825 5.51857e-05 3.47254e-05 -3.03332e-06 6.52726e-05
54 1 9.81726 11.0136 11.9508 -1.99505e-05 1.82319e-05 5.97341e-06 2.76786e-05
55 1 8.6095 9.53285 10.0765 -1.06378e-05 -1.98098e-06 2.80772e-05 3.00902e-05
56 1 10.6658 11.016 7.70215 3.03797e-05 -3.54852e-05 2.24367e-05 5.18221e-05
57 1 8.93807 5.16475 2.19154 -2.72539e-05 -1.86735e-05 2.37622e-05 4.06954e-05
58 1 10.0371 6.46794 4.13915 2.87776e-05 3.77472e-05 2.35013e-05 5.29652e-05
59 1 7.93965 5.00277 6.61796 -3.97924e-05 -3.39806e-05 2.44046e-06 5.23839e-05
60 1 9.15413 6.26692 8.59271 1.59189e-05 -2.96335e-06 1.06312e-05 1.93705e-05
61 1 8.44352 3.97861 8.89892 -2.01496e-05 -6.23637e-05 2.97763e-05 7.19852e-05
62 1 10.4973 4.6054 12.6393 1.65161e-05 1.73743e-05 2.33771e-07 2.3973e-05
63 1 7.26527 7.02796 1.93078 -1.88994e-05 5.16018e-06 1.91106e-06 1.96842e-05
64 1 10.7891 8.8277 3.71917 -1.51834e-06 -1.19246e-05 -7.51481e-06 1.41765e-05
65 1 8.73829 7.31026 6.18486 8.63813e-06 2.00247e-05 3.42831e-05 4.06317e-05
66 1 9.89035 8.6176 8.14791 -3.73297e-05 -3.19226e-05 2.23078e-05 5.39462e-05
67 1 7.99103 7.2185 10.491 6.26818e-06 -4.94234e-05 2.34351e-05 5.50561e-05
68 1 9.47877 8.5602 12.248 0.000116721 -2.29941e-05 -8.87989e-06 0.000119295
69 1 8.05175 9.38514 1.47117 2.16548e-05 6.97738e-06 -3.35596e-05 4.05445e-05
70 1 9.1211 10.6978 3.39436 -1.92375e-05 -5.1159e-05 -2.60743e-05 6.05573e-05
71 1 9.49511 9.64894 5.76817 -4.78244e-05 -4.12811e-05 -4.84689e-06 6.33624e-05
72 1 9.05023 3.14335 11.1581 -1.90466e-07 -6.08392e-06 6.58866e-05 6.61672e-05
73 1 11.02 0.304163 1.02953 -2.58275e-05 -1.30394e-05 3.5464e-05 4.57688e-05
74 1 6.80509 3.67622 4.75157 2.85958e-05 3.80804e-06 2.63605e-06 2.89684e-05
75 1 7.74841 3.91078 0.367473 1.58148e-05 2.12246e-05 1.3597e-05 2.97569e-05
76 1 3.49099 7.4057 4.12524 1.89608e-05 3.83405e-05 -1.86855e-05 4.66761e-05
77 1 1.4059 5.88858 6.56802 -1.52129e-07 -2.93256e-05 -1.13403e-05 3.14423e-05
78 1 2.54343 7.22775 8.48181 2.3845e-05 -1.12025e-05 -1.05466e-05 2.8378e-05
79 1 0.118122 6.71603 8.59348 -1.79889e-05 -2.40032e-05 -8.76619e-06 3.12506e-05
80 1 1.09432 6.39089 12.6361 3.51412e-05 5.23681e-06 -6.83399e-06 3.61805e-05
81 1 0.744644 8.10625 1.62831 3.24134e-06 1.66755e-05 -4.90601e-05 5.19179e-05
82 1 1.54858 4.05937 11.5209 -5.73952e-05 3.93703e-05 -2.79572e-05 7.50056e-05
83 1 1.80472 9.30278 3.70139 1.98241e-05 -1.11389e-05 -4.52617e-05 5.06527e-05
84 1 3.33964 9.56227 8.02052 8.46386e-07 -2.1486e-05 -4.22086e-05 4.73701e-05
85 1 1.16741 7.9295 10.5601 7.25114e-06 3.9006e-05 -1.55e-05 4.25946e-05
86 1 2.2785 9.17346 12.4618 1.76167e-05 5.79682e-05 -1.16041e-05 6.16872e-05
87 1 0.147335 11.1924 3.28002 4.44727e-05 1.6738e-05 4.18987e-05 6.33521e-05
88 1 0.512037 10.1146 5.69241 4.88246e-05 6.26545e-05 2.25359e-05 8.25669e-05
89 1 2.05252 10.322 10.0595 -4.09052e-05 2.95476e-05 6.11349e-06 5.08298e-05
90 1 2.17897 8.24101 6.0886 2.47068e-05 4.12443e-05 -1.80078e-05 5.134e-05
91 1 1.08769 2.53321 9.54627 2.66343e-05 2.32972e-06 -3.92071e-05 4.74554e-05
92 1 1.73641 4.8904 9.01005 4.32921e-06 -2.09711e-05 -5.1241e-05 5.55353e-05
93 1 0.556583 3.53561 7.20616 7.98312e-05 6.10789e-06 -6.24013e-05 0.00010151
94 1 0.899069 9.07785 8.09873 -3.25232e-05 2.02328e-05 -1.15985e-05 4.00206e-05
95 1 2.02315 0.463342 1.14824 -1.94595e-05 5.54567e-05 -3.47478e-05 6.82754e-05
96 1 2.51937 11.6609 3.45471 -3.78033e-05 -8.20176e-06 -3.17562e-05 5.00482e-05
97 1 1.66371 11.4174 7.70276 -2.17486e-05 -1.89873e-05 2.40542e-05 3.75782e-05
98 1 0.822201 11.135 12.0995 4.04451e-05 7.88775e-05 2.19906e-06 8.86696e-05
99 1 2.81053 2.84775 0.688667 -2.58224e-05 2.95268e-05 -4.4684e-05 5.94583e-05
100 1 0.807301 1.48751 3.0621 -2.21032e-05 1.14338e-05 2.82046e-05 3.76136e-05
101 1 1.92762 2.7712 5.04445 3.09107e-05 2.32206e-05 -2.29456e-05 4.49574e-05
102 1 1.1853 0.406686 5.44043 -3.10728e-05 -1.13382e-05 -1.99148e-05 3.86092e-05
103 1 2.22161 1.6943 7.40069 2.0673e-05 3.03398e-05 -2.6467e-05 4.5259e-05
104 1 0.413037 0.087989 9.71654 -1.0113e-05 3.01637e-05 -5.28454e-06 3.22497e-05
105 1 1.63728 1.4409 11.6893 9.03529e-06 7.24421e-05 -2.97078e-05 7.88165e-05
106 1 11.3518 5.64976 2.03662 2.56235e-07 1.47551e-05 -1.29919e-05 1.96614e-05
107 1 1.57557 3.81824 2.62698 2.33519e-05 5.97117e-06 -2.7347e-06 2.42579e-05
108 1 2.7099 5.09012 4.55862 -7.96123e-05 -3.32105e-05 -3.56641e-05 9.33434e-05
109 1 4.46511 0.987692 0.99051 2.11243e-05 -5.36725e-06 1.97587e-05 2.94186e-05
110 1 5.65757 2.35486 2.87595 -3.519e-05 -2.38642e-05 -1.40938e-05 4.47936e-05
111 1 4.92729 0.00269696 3.29057 4.61151e-05 4.1919e-06 -4.23654e-06 4.64987e-05
112 1 3.25691 11.6564 11.9268 2.82359e-05 6.23776e-05 -2.77232e-05 7.38702e-05
113 1 4.17131 7.47803 12.6352 1.79858e-05 2.97201e-05 -3.07137e-05 4.63692e-05
114 1 3.14167 8.40335 1.84196 1.83672e-05 3.52602e-05 -3.25367e-05 5.13739e-05
115 1 4.25286 9.75055 3.69745 -3.08468e-05 -5.43533e-05 -1.48408e-05 6.42344e-05
116 1 4.62498 8.72305 6.00645 -1.67067e-05 -2.75424e-06 3.05396e-05 3.49194e-05
117 1 5.78639 10.0564 7.88522 2.84587e-05 -3.06557e-05 3.48622e-05 5.44522e-05
118 1 3.68868 8.51016 10.3781 1.78841e-05 -7.39613e-06 -1.86934e-05 2.69071e-05
119 1 2.88912 6.15625 10.8251 9.16644e-06 4.75722e-06 -2.55519e-05 2.756e-05
120 1 4.91372 9.83084 12.2274 2.76396e-05 2.1649e-05 1.67318e-05 3.88919e-05
121 1 2.93293 10.5899 5.69888 -4.88624e-05 -5.48097e-05 -5.91069e-06 7.36653e-05
122 1 4.51057 10.8759 9.90711 1.00852e-05 -1.29625e-05 1.29168e-05 2.08945e-05
123 1 6.92252 1.53184 0.854583 -4.88043e-05 -3.28303e-05 -1.38934e-05 6.04377e-05
124 1 7.35245 0.485052 3.16189 -5.41587e-05 -7.95467e-07 1.73557e-05 5.68772e-05
125 1 6.53056 0.310673 7.47655 -1.73641e-05 -4.75089e-05 -1.66934e-05 5.32662e-05
126 1 5.71132 0.151284 11.7927 1.83942e-05 -3.71547e-05 -2.11521e-05 4.65428e-05
127 1 3.66308 10.7194 1.41113 -3.60823e-05 -1.35004e-05 3.63003e-05 5.2933e-05
128 1 5.00204 7.712 8.33567 -2.37488e-05 -2.19603e-05 1.77066e-05 3.68753e-05
129 1 3.84297 6.37984 6.46408 4.16662e-05 -7.94412e-06 -6.16063e-06 4.28618e-05
130 1 5.93189 7.87304 3.9681 -4.57276e-05 -6.79609e-05 3.09906e-05 8.75792e-05
131 1 5.24962 3.37691 0.559992 -1.30448e-05 -6.17517e-06 2.27128e-05 2.69104e-05
132 1 3.22908 1.90015 3.01963 1.27121e-05 4.631e-05 -1.87565e-05 5.1556e-05
133 1 4.36457 3.21341 4.91104 -1.86065e-05 -4.00335e-05 6.15259e-06 4.45728e-05
134 1 3.6134 0.873856 5.34906 3.28974e-05 4.12482e-05 -1.18844e-05 5.40822e-05
135 1 4.72071 2.18694 7.24495 1.04555e-05 -3.28954e-05 7.07097e-06 3.52338e-05
136 1 2.83162 0.62799 9.63575 -4.62267e-05 -1.75591e-05 -2.47004e-05 5.52751e-05
137 1 4.01533 2.01221 11.512 4.25896e-05 -1.23756e-05 -1.32755e-05 4.62955e-05
138 1 3.39771 5.17085 0.246329 2.81619e-05 4.56824e-05 -6.3241e-06 5.40367e-05
139 1 4.00658 4.23272 2.56564 8.04821e-06 -2.54227e-06 -6.78154e-05 6.83386e-05
140 1 5.15676 5.54027 4.43941 4.68974e-05 3.93667e-05 -1.59185e-05 6.32653e-05
141 1 3.02971 4.03842 6.95509 -5.0103e-06 -5.13266e-06 -1.9066e-05 2.03706e-05
142 1 4.22155 5.37807 8.79632 -2.18112e-05 1.90401e-05 -3.56515e-05 4.5927e-05
143 1 3.46471 3.05331 9.30157 -7.80623e-06 -2.29517e-05 4.41206e-06 2.46411e-05
144 1 4.6777 4.3708 11.1021 -5.75084e-06 -1.90508e-05 1.21949e-06 1.99372e-05
145 1 2.32919 6.13944 2.18241 1.93259e-05 -1.31747e-05 -1.58625e-06 2.34431e-05
146 1 4.08209 11.9253 7.60672 6.26832e-06 -6.25499e-07 1.61204e-05 1.73075e-05
147 1 10.2177 11.9875 5.31666 6.67163e-05 -3.89665e-06 2.87288e-05 7.27433e-05
