ITEM: TIMESTEP
0
ITEM: NUMBER OF ATOMS
138
ITEM: BOX BOUNDS pp pp pp
0.0000000000000000e+00 1.1464695000000001e+01
0.0000000000000000e+00 1.1317634999999999e+01
0.0000000000000000e+00 1.1648808000000001e+01
ITEM: ATOMS id type x y z fx fy fz v_fmag
1 1 0.40543 6.62408 6.80488 1.45009e-05 -1.6575e-06 -1.46673e-05 2.06919e-05
2 1 6.83525 5.16324 3.84255 2.31957e-05 -4.10789e-05 -1.34456e-05 4.9054e-05
3 1 8.00552 6.55892 2.21187 9.28666e-06 7.33943e-06 -4.97526e-06 1.28399e-05
4 1 6.31216 5.18685 0.946785 2.73613e-05 -4.0888e-05 1.75083e-05 5.22207e-05
5 1 7.26671 3.83987 10.9848 2.08097e-06 5.19067e-05 2.80162e-05 5.90216e-05
6 1 8.29752 4.94729 9.04691 -4.34817e-06 6.42939e-06 1.24489e-05 1.46704e-05
7 1 6.47241 3.70742 8.0373 -9.67403e-07 2.8923e-05 7.55886e-06 2.99101e-05
8 1 7.61814 5.06252 6.36692 4.23745e-05 -1.60088e-05 4.10026e-06 4.54828e-05
9 1 6.67766 2.52082 3.79946 1.3845e-05 -2.57833e-05 4.31936e-05 5.21742e-05
10 1 7.84759 3.77777 2.12428 3.57391e-05 8.1864e-06 -4.71278e-05 5.97104e-05
11 1 6.04949 2.55713 1.00832 -3.72443e-06 -5.77063e-06 7.73515e-06 1.03443e-05
12 1 7.06183 1.12299 10.9864 1.5367e-05 4.07475e-05 2.7262e-05 5.13782e-05
13 1 8.18419 2.50336 9.36449 -1.39328e-05 -2.74957e-05 -4.53995e-05 5.48749e-05
14 1 6.36131 1.23182 8.47278 2.10662e-05 6.01342e-06 -2.06757e-06 2.2005e-05
15 1 7.44781 2.30147 6.29632 3.13085e-05 -3.66647e-05 -4.455e-05 6.56447e-05
16 1 11.1624 6.62678 4.22923 -5.20601e-05 -2.31846e-05 5.2677e-05 7.76057e-05
17 1 8.44681 0.906662 4.57355 -1.40184e-05 -1.82964e-05 3.3427e-05 4.06034e-05
18 1 8.75339 10.9627 0.329016 3.15448e-05 2.78604e-05 -8.50513e-07 4.20951e-05
19 1 5.61678 10.7265 9.91372 -1.9138e-05 4.99925e-05 -1.29954e-06 5.35463e-05
20 1 7.38998 11.1185 6.77322 2.46043e-06 1.75957e-06 -3.04663e-05 3.06161e-05
21 1 7.0371 10.4695 3.33176 2.52328e-05 1.46562e-05 -5.32766e-05 6.07445e-05
22 1 6.31957 10.7197 0.853636 -1.53812e-05 -9.58023e-06 -1.6865e-05 2.47546e-05
23 1 4.72524 9.12928 11.4745 -1.26906e-05 -6.18341e-05 3.05887e-05 7.01439e-05
24 1 9.09809 9.53506 7.61982 -2.48108e-05 2.20742e-05 1.34835e-05 3.5842e-05
25 1 7.6921 7.83349 6.46017 4.01138e-05 1.1872e-05 7.2698e-05 8.38753e-05
26 1 8.40982 9.70381 5.09272 5.03048e-05 -1.89387e-05 4.3508e-05 6.91534e-05
27 1 6.98469 7.95469 3.92399 -1.0886e-05 4.54465e-05 -1.54813e-05 4.92297e-05
28 1 8.04228 9.0816 1.68011 -1.652e-05 1.3667e-05 -3.46013e-05 4.07056e-05
29 1 3.50419 7.97442 1.6487 2.61905e-05 -1.63157e-06 -5.83734e-05 6.40004e-05
30 1 4.51091 6.55038 11.5476 -3.70238e-05 -3.89659e-05 1.52789e-05 5.58798e-05
31 1 5.69251 7.77052 9.77965 -1.07748e-05 -3.30568e-05 -8.27385e-05 8.97469e-05
32 1 7.71376 1.08586 2.05969 1.8762e-05 -2.65033e-05 1.32733e-05 3.50801e-05
33 1 6.6516 6.42006 8.07504 -2.90546e-05 -0.000121107 1.0014e-05 0.000124945
34 1 8.3737 7.80774 9.11951 -4.20278e-05 -3.06176e-05 3.92365e-06 5.21456e-05
35 1 7.40433 6.28063 10.6701 2.0465e-05 -8.15552e-05 -1.60209e-05 8.55964e-05
36 1 9.0599 7.6726 0.00552028 4.0591e-05 2.84759e-05 -5.3724e-05 7.31079e-05
37 1 10.0859 6.2444 9.95857 -5.02499e-05 -1.5697e-05 -2.0743e-05 5.65837e-05
38 1 10.8291 8.07063 8.52188 4.17188e-05 2.86267e-05 -2.50376e-05 5.6452e-05
39 1 9.3901 6.35588 7.43794 3.78932e-05 5.3896e-07 -7.97749e-05 8.83189e-05
40 1 9.76907 4.95479 2.99393 -1.00259e-05 2.94471e-05 -1.34483e-05 3.38896e-05
41 1 10.4112 6.93789 1.79848 -1.20468e-05 2.15667e-05 1.26124e-05 2.77367e-05
42 1 9.01049 5.16567 0.492439 -2.00324e-06 2.66243e-05 3.31203e-06 2.69042e-05
43 1 9.99113 3.76299 10.4053 4.26156e-05 1.81962e-05 1.37399e-05 4.83319e-05
44 1 11.124 4.81103 8.25435 4.95053e-05 3.73224e-05 -2.54315e-05 6.70112e-05
45 1 9.20619 3.61246 7.42418 3.14994e-05 3.50275e-05 1.25906e-05 4.87613e-05
46 1 10.4035 4.91747 5.765 -4.8179e-05 -2.6187e-05 -1.18152e-05 5.60943e-05
47 1 8.60697 3.68611 4.65978 -1.45708e-05 -2.0585e-05 1.96945e-05 3.19988e-05
48 1 10.8035 3.5284 1.23743 -4.78548e-05 2.88972e-06 -1.99874e-05 5.19416e-05
49 1 8.84276 2.39736 0.416368 5.49132e-06 2.5468e-06 -6.56372e-06 8.92878e-06
50 1 10.6279 0.919205 1.21822 -3.8635e-05 -7.08862e-06 3.64014e-05 5.35535e-05
51 1 10.9599 2.34767 8.65201 -4.09799e-05 6.08004e-06 -4.01211e-07 4.14305e-05
52 1 9.07771 1.17019 7.74001 2.26788e-05 1.41647e-05 7.28613e-05 7.76128e-05
53 1 6.49327 7.61387 0.635948 8.26345e-06 5.38638e-06 6.95925e-05 7.02881e-05
54 1 0.390733 8.48868 2.90568 -0.000120462 7.13616e-05 5.42774e-05 0.000150165
55 1 9.41873 8.31087 3.43545 -2.38103e-05 2.59732e-05 3.64493e-05 5.06961e-05
56 1 10.911 9.82157 4.51258 1.77455e-05 -7.18983e-05 -8.05782e-05 0.00010944
57 1 10.1275 8.07916 5.92685 -6.56311e-05 4.69919e-05 3.29349e-05 8.71802e-05
58 1 10.7732 11.0026 8.65098 -9.02451e-06 3.85856e-05 4.76977e-05 6.2011e-05
59 1 4.6153 5.3531 7.33722 -3.77539e-05 -4.97283e-05 1.91031e-06 6.24653e-05
60 1 7.351 9.26465 10.8082 -1.61256e-05 -9.72747e-06 -3.95355e-05 4.37917e-05
61 1 9.46485 10.8305 2.8602 3.35024e-05 -5.13426e-05 -1.65588e-05 6.35033e-05
62 1 9.98255 11.1544 6.12323 3.93558e-05 4.00805e-05 1.57043e-05 5.83263e-05
63 1 8.0774 10.9916 9.30684 -2.03742e-05 2.53177e-05 4.26865e-05 5.36491e-05
64 1 9.61665 2.30035 2.94492 -2.17862e-05 1.06632e-05 5.42771e-05 5.94504e-05
65 1 11.1219 0.913875 4.19611 4.43037e-05 -1.55731e-05 -5.56637e-05 7.28271e-05
66 1 10.1523 2.26844 5.81193 8.81658e-05 -6.09614e-06 2.08763e-06 8.8401e-05
67 1 10.4904 9.42523 1.15063 6.21407e-06 -1.67405e-06 -2.19677e-05 2.2891e-05
68 1 8.73209 6.39175 4.72986 2.56939e-05 2.37258e-06 1.37492e-05 2.92378e-05
69 1 4.05614 5.36748 4.34486 -6.41755e-05 -2.97343e-05 -1.55345e-06 7.07463e-05
70 1 5.34056 6.54343 2.56758 1.35089e-05 3.93546e-07 -1.05495e-05 1.71446e-05
71 1 3.19805 3.73504 5.96546 2.71959e-05 1.12484e-05 8.47653e-06 3.06268e-05
72 1 1.7446 1.97072 4.87569 -4.30261e-05 -1.65252e-05 -1.61779e-05 4.88472e-05
73 1 2.49034 3.73881 3.39138 -1.34524e-05 -1.80532e-05 -5.8962e-05 6.31142e-05
74 1 0.938788 2.09736 2.4302 2.8065e-05 -9.30391e-05 1.73358e-05 9.87139e-05
75 1 1.9184 0.713119 0.751658 4.43982e-05 -3.76011e-05 -5.41759e-05 7.94988e-05
76 1 2.83383 2.30804 10.7602 -5.28438e-05 1.65088e-05 -6.38436e-05 8.45045e-05
77 1 1.38912 0.713314 9.34772 4.27254e-05 3.51393e-05 3.56373e-06 5.54341e-05
78 1 2.71864 1.61168 7.04677 -3.87981e-05 -2.92975e-05 5.7618e-05 7.53888e-05
79 1 3.66248 0.289817 5.45226 1.28963e-05 3.17281e-05 -3.81412e-06 3.44606e-05
80 1 2.75653 0.570916 3.19495 2.92843e-05 -7.84548e-05 2.98192e-05 8.88927e-05
81 1 2.39581 10.6435 7.60978 6.50869e-05 3.53993e-05 -7.88566e-06 7.4509e-05
82 1 1.48438 10.8166 5.14527 3.57948e-05 3.91176e-05 -4.9897e-06 5.32574e-05
83 1 1.60717 9.50545 0.881118 3.13371e-05 -3.03496e-05 1.73072e-06 4.3659e-05
84 1 3.8657 9.28756 9.00964 8.22153e-05 1.57839e-05 -4.80822e-05 9.65421e-05
85 1 2.10564 8.12109 7.71847 -1.80588e-05 1.21613e-05 3.09707e-05 3.78576e-05
86 1 3.38808 9.27153 5.8987 3.96401e-06 4.31313e-05 -7.09215e-05 8.31016e-05
87 1 1.2481 8.27788 5.26486 -1.72423e-05 4.2404e-05 -1.37655e-05 4.78005e-05
88 1 0.055396 8.00961 11.0898 8.17179e-06 -1.76129e-05 -1.32883e-05 2.35281e-05
89 1 0.272911 9.64674 6.95365 -8.31133e-06 -6.82711e-06 0.000100711 0.000101283
90 1 1.13189 9.48993 9.4231 -1.49129e-05 8.41641e-06 1.34479e-05 2.17733e-05
91 1 0.155535 10.8615 11.1403 -4.00094e-05 6.23806e-05 8.61739e-06 7.4608e-05
92 1 0.630463 10.8704 2.55473 -8.08991e-06 -5.10081e-06 -4.73684e-05 4.83242e-05
93 1 0.480181 0.923884 6.896 -3.27785e-05 -1.44388e-05 3.0979e-05 4.73562e-05
94 1 1.78865 2.93655 8.63093 1.70327e-05 9.17974e-05 4.85992e-05 0.000105256
95 1 0.36938 2.11601 11.1116 -4.15731e-05 -5.39085e-06 -2.34612e-05 4.80397e-05
96 1 0.70719 3.38435 6.55936 7.99325e-06 -3.69645e-05 1.83474e-06 3.78633e-05
97 1 0.862911 4.26238 10.2186 -4.00533e-05 -7.04745e-05 3.77078e-05 8.94025e-05
98 1 0.73504 5.17992 2.52658 3.78554e-05 4.55156e-05 -1.80148e-05 6.18809e-05
99 1 3.07919 6.74884 6.02617 -1.46965e-05 -1.78063e-05 -4.46583e-05 5.02734e-05
100 1 1.09371 6.59225 9.37866 -3.98553e-06 9.87938e-07 -2.47447e-05 2.50831e-05
101 1 2.4942 9.39522 3.3969 2.15842e-05 3.00131e-07 -1.58671e-06 2.16445e-05
102 1 11.4099 3.49742 4.09874 4.53292e-05 -2.83718e-05 -5.21961e-05 7.4727e-05
103 1 9.79229 9.51803 10.2478 -7.23952e-05 4.10798e-05 2.91197e-05 8.81849e-05
104 1 3.22139 4.5127 9.7691 8.64385e-05 -0.000148355 -0.000175121 0.000245252
105 1 11.3823 5.58932 0.176676 1.59002e-05 2.52267e-05 5.35092e-05 6.12572e-05
106 1 3.24087 5.49808 1.90105 -5.78988e-06 1.85989e-05 3.5163e-05 4.0198e-05
107 1 4.27224 4.08818 0.218631 -2.97228e-05 -1.33996e-05 2.5083e-05 4.11357e-05
108 1 5.50196 5.12546 9.79299 -3.37774e-05 -5.74135e-05 3.23066e-06 6.66907e-05
109 1 4.1459 3.18569 8.18492 -0.000101444 0.000101098 0.000187433 0.000235888
110 1 5.64374 3.94362 5.56226 5.43864e-05 9.11254e-06 -9.61899e-05 0.000110876
111 1 4.24553 2.29833 4.25663 -8.15119e-06 -3.41341e-05 -2.12331e-05 4.10174e-05
112 1 5.04597 3.9721 2.67415 -3.67771e-06 3.72307e-05 -2.65748e-05 4.58897e-05
113 1 3.53115 2.29874 1.68646 -4.35842e-06 2.84453e-05 -3.98883e-05 4.91854e-05
114 1 4.57429 0.855022 11.6282 -3.54356e-05 7.7518e-05 4.15076e-05 9.48029e-05
115 1 5.31988 2.6643 10.1762 3.98872e-05 3.42235e-05 3.14549e-06 5.2651e-05
116 1 3.88569 0.880441 9.05422 -7.02642e-06 1.42245e-05 7.33233e-05 7.50201e-05
117 1 5.08476 1.86113 6.58271 3.72863e-05 -3.69062e-05 -0.000136966 0.00014667
118 1 6.04961 0.519185 4.96443 -3.0567e-05 -4.82042e-06 3.25221e-05 4.48917e-05
119 1 5.28405 0.853365 2.55239 4.20363e-05 7.18217e-06 2.40009e-05 4.89354e-05
120 1 2.89184 10.6564 10.7111 9.61198e-06 -2.25568e-05 4.11482e-05 4.78996e-05
121 1 4.92679 10.78 7.34328 2.54622e-05 2.96297e-05 2.5904e-06 3.9153e-05
122 1 4.61304 10.2792 3.85148 -1.76957e-05 4.10719e-06 1.61866e-05 2.43314e-05
123 1 2.23509 6.89466 3.58171 -1.94953e-06 4.04613e-05 5.31567e-05 6.68322e-05
124 1 1.44917 5.17964 5.09647 -3.34003e-06 7.05386e-06 -4.05619e-05 4.1306e-05
125 1 5.82753 6.54258 5.5707 -4.3788e-06 -5.00736e-05 2.22342e-05 5.49627e-05
126 1 2.14318 5.16755 7.67122 3.10699e-05 1.81795e-05 -3.75037e-05 5.19842e-05
127 1 3.59889 6.75303 9.09474 3.80114e-05 3.9138e-05 -3.39229e-05 6.42449e-05
128 1 2.28782 5.83575 11.3559 -0.000118961 0.000187617 0.000202329 0.000300481
129 1 1.77981 3.74125 0.818345 -6.54583e-05 -2.98597e-05 1.85792e-05 7.43073e-05
130 1 1.34123 7.15887 1.30352 3.44742e-05 -9.58443e-05 -0.000142711 0.000175331
131 1 4.36704 7.90559 4.21711 -7.86412e-07 4.09262e-05 -9.82349e-06 4.2096e-05
132 1 5.95826 9.36344 5.6332 -1.89964e-05 -2.85289e-06 1.69723e-05 2.56332e-05
133 1 4.84051 7.91695 7.29556 9.64463e-07 -8.60182e-05 4.7055e-06 8.61522e-05
134 1 6.65406 9.27917 8.18966 -2.91882e-05 -1.73376e-05 7.20141e-05 7.96151e-05
135 1 2.59555 8.1356 10.826 -4.93665e-05 -1.43033e-05 -2.94671e-05 5.92448e-05
136 1 3.74744 10.5017 1.51286 3.66536e-05 -6.50469e-06 -1.79487e-05 4.13274e-05
137 1 5.55982 8.94666 2.24568 3.32423e-05 -2.60535e-05 -1.12495e-05 4.3708e-05
138 1 9.814 1.03538 10.3574 -4.49551e-05 1.01123e-05 2.39976e-05 5.19529e-05
