ITEM: TIMESTEP
0
ITEM: NUMBER OF ATOMS
142
ITEM: BOX BOUNDS pp pp pp
0.0000000000000000e+00 1.1400361000000000e+01
0.0000000000000000e+00 1.2098903999999999e+01
0.0000000000000000e+00 1.2816801000000000e+01
ITEM: ATOMS id type x y z fx fy fz v_fmag
1 1 1.53671 11.5771 2.2248 -4.60196e-06 -1.35553e-05 -2.06078e-05 2.50919e-05
2 1 8.34495 8.50984 0.978841 -1.30834e-05 -1.65266e-05 1.91761e-05 2.84961e-05
3 1 7.39589 7.26147 11.6475 2.86482e-05 -8.44302e-06 2.1529e-05 3.68171e-05
4 1 6.44939 6.01305 9.49634 4.13842e-05 7.67513e-06 2.01989e-06 4.21383e-05
5 1 7.69332 7.64328 8.0929 -1.97868e-05 -9.45345e-08 1.03665e-05 2.23381e-05
6 1 6.77822 6.39628 5.91096 1.16883e-06 -2.2701e-05 2.9899e-05 3.75587e-05
7 1 8.0323 8.02076 4.48789 1.69587e-05 -2.06384e-05 -1.41806e-05 3.02429e-05
8 1 7.11572 6.82257 2.33962 2.76014e-05 2.98394e-05 2.61655e-05 4.83411e-05
9 1 7.69372 4.6143 11.2858 3.15953e-05 4.07613e-05 -3.10714e-05 6.02095e-05
10 1 6.72842 3.39377 9.13596 2.29296e-05 -3.73678e-05 -1.55522e-05 4.65187e-05
11 1 7.9811 5.03395 7.75287 -2.15165e-06 -2.62148e-05 1.32367e-05 2.94459e-05
12 1 7.0635 3.80234 5.57511 -8.73086e-06 -1.4124e-05 -1.3716e-05 2.15371e-05
13 1 8.35435 5.43047 4.12357 2.85939e-05 1.81002e-06 -2.18819e-06 2.87346e-05
14 1 7.44438 4.20788 1.9841 1.90834e-05 -4.84533e-06 4.08131e-06 2.01075e-05
15 1 8.68792 5.85673 0.591012 -9.5918e-06 -2.76317e-05 -3.42361e-05 4.50292e-05
16 1 9.00811 3.203 0.240062 3.62457e-05 3.03303e-05 2.22458e-05 5.22355e-05
17 1 7.07282 0.770107 8.77402 -3.10974e-05 -2.82578e-05 -3.26154e-05 5.31913e-05
18 1 8.28112 2.43012 7.40014 -5.16369e-05 1.24608e-05 1.75067e-05 5.59296e-05
19 1 6.77715 9.45908 2.73508 -2.55597e-05 -1.13202e-05 2.19777e-05 3.55594e-05
20 1 4.0188 8.7617 5.82918 -6.79676e-06 9.28045e-06 1.21006e-05 1.66957e-05
21 1 4.93759 9.98632 8.01757 -3.5507e-05 -2.6407e-05 -3.35625e-06 4.43773e-05
22 1 3.67647 8.36415 9.4461 2.65275e-05 -1.29219e-05 -1.22144e-05 3.19355e-05
23 1 7.11506 9.87098 11.9905 -2.71536e-05 8.21032e-06 2.55707e-05 3.81914e-05
24 1 5.22211 10.4525 4.49306 7.17097e-06 2.56474e-05 -7.31509e-06 2.76174e-05
25 1 9.25807 9.70481 3.14881 1.41929e-05 4.05514e-05 -6.792e-06 4.3497e-05
26 1 6.14963 11.6576 6.64067 -4.43221e-06 2.0417e-05 2.55135e-05 3.29763e-05
27 1 3.02554 10.5795 0.479832 -4.69192e-06 -1.01903e-05 -1.18976e-05 1.63526e-05
28 1 8.94506 0.245628 3.47814 3.63753e-05 -4.13156e-06 -2.95611e-05 4.70541e-05
29 1 9.24973 0.616167 12.7266 -7.07219e-06 1.76046e-05 7.34666e-07 1.89863e-05
30 1 7.72648 1.60449 1.66708 -2.18079e-05 1.27032e-05 3.62232e-06 2.54966e-05
31 1 8.65116 2.86254 3.80662 3.67178e-06 6.04287e-06 -4.78648e-06 8.53865e-06
32 1 7.37081 1.21097 5.23243 -1.85465e-05 9.12803e-06 -1.30716e-05 2.44573e-05
33 1 3.36547 10.952 9.77027 1.81912e-05 -2.33557e-05 -1.65854e-05 3.39335e-05
34 1 6.4792 9.01698 6.25118 -6.85474e-06 1.38305e-05 -2.91614e-06 1.57091e-05
35 1 7.41176 10.2582 8.42304 3.22804e-05 -1.40282e-05 -2.62055e-05 4.3881e-05
36 1 6.16157 8.62546 9.84051 2.99911e-05 -1.95819e-05 -2.24106e-05 4.2251e-05
37 1 10.1623 4.82139 11.6433 1.85996e-05 2.01181e-06 -1.5564e-06 1.87727e-05
38 1 9.62705 7.07096 2.68712 -4.52512e-06 1.40075e-05 -4.03994e-06 1.52646e-05
39 1 10.4717 8.28221 4.94886 -1.3211e-05 -4.05073e-05 -9.1081e-06 4.35698e-05
40 1 9.23364 6.6588 6.35018 1.72357e-05 2.45196e-06 -4.70658e-06 1.80342e-05
41 1 10.1634 7.88873 8.5261 2.97792e-05 -1.02184e-05 -5.24852e-06 3.19181e-05
42 1 8.91785 6.27146 9.91692 -4.93581e-06 -2.58495e-05 3.11922e-06 2.65008e-05
43 1 9.22448 3.63995 9.53941 5.32978e-06 -3.72091e-05 2.23778e-05 4.37458e-05
44 1 9.86171 7.52474 12.0467 -8.03058e-06 1.99097e-06 8.42671e-07 8.31651e-06
45 1 8.92983 9.2594 6.67925 -1.0645e-05 1.75564e-05 -1.4969e-06 2.0586e-05
46 1 9.92026 10.5581 8.77442 -1.0842e-05 -2.785e-05 -1.12816e-05 3.19444e-05
47 1 8.64819 8.91511 10.2343 1.53303e-05 2.34073e-05 -8.14588e-07 2.79925e-05
48 1 10.8241 11.7688 10.9451 -1.71515e-05 9.41463e-06 -4.15146e-07 1.95699e-05
49 1 10.1592 10.9235 5.324 1.28193e-05 -3.31954e-05 -1.19186e-05 3.75276e-05
50 1 8.35301 11.4947 10.5576 -2.7566e-05 3.04631e-05 -6.17408e-06 4.15453e-05
51 1 10.8416 8.84659 1.37971 -6.1957e-06 -9.11091e-06 -3.73004e-05 3.88936e-05
52 1 5.85529 8.23137 0.574305 -1.56704e-05 2.98403e-05 2.75055e-05 4.35035e-05
53 1 10.4537 5.29449 8.18473 1.31217e-06 1.84447e-05 2.72247e-05 3.29107e-05
54 1 10.7829 5.67987 4.61652 1.96462e-05 -4.27125e-05 5.63015e-05 7.33498e-05
55 1 9.63019 10.1533 12.3992 -1.26033e-06 -5.51248e-06 -4.51841e-05 4.55366e-05
56 1 7.7028 10.6872 4.88124 -4.4404e-05 -2.27936e-05 -1.11727e-05 5.11478e-05
57 1 8.64614 11.907 7.03949 -1.44338e-06 -1.2784e-05 3.67254e-05 3.89136e-05
58 1 5.85475 11.2251 10.1713 -2.25903e-05 3.12575e-05 -2.56804e-05 4.6334e-05
59 1 5.53094 10.8339 0.907931 -7.83652e-06 1.88054e-05 -2.27376e-05 3.05295e-05
60 1 11.3851 0.466932 3.93924 -5.02913e-05 3.26042e-06 -8.20019e-06 5.10597e-05
61 1 9.52492 4.06472 6.00904 6.42821e-05 4.01348e-05 -3.32013e-05 8.27364e-05
62 1 9.61654 1.00061 9.11736 -1.76293e-05 -1.72813e-05 2.79307e-05 3.72768e-05
63 1 11.0883 3.06284 4.30266 -2.67385e-05 3.95584e-06 -1.73145e-05 3.20997e-05
64 1 9.82473 1.45205 5.66733 1.6365e-05 1.71878e-06 -3.93531e-05 4.26549e-05
65 1 10.7746 2.71544 7.82258 4.04887e-05 5.96018e-05 -1.86297e-05 7.44229e-05
66 1 8.02708 1.97913 10.8962 1.16783e-05 3.47854e-05 -2.40327e-05 4.38632e-05
67 1 10.5032 2.1959 11.2655 -1.81562e-05 1.6043e-05 4.15557e-05 4.8103e-05
68 1 9.97765 4.49407 2.31475 1.70524e-05 -1.06745e-05 1.85728e-06 2.02035e-05
69 1 10.2142 1.91371 2.05921 -3.60714e-05 -1.37622e-05 -1.40679e-05 4.10908e-05
70 1 4.91295 6.98503 11.245 -4.23562e-06 1.61865e-05 3.8248e-05 4.17475e-05
71 1 3.98134 5.77086 9.08687 8.90936e-06 -4.39517e-05 -2.43147e-05 5.10131e-05
72 1 5.23004 7.39028 7.66883 3.38575e-05 -1.59664e-06 -1.45072e-05 3.68692e-05
73 1 3.99504 11.8182 2.65533 -1.26568e-05 -3.06139e-05 5.61285e-07 3.31319e-05
74 1 4.55357 0.508822 8.40155 1.22812e-05 1.29581e-05 -3.06529e-05 3.5473e-05
75 1 4.30096 0.0960055 11.9102 8.86937e-06 -4.10416e-05 -1.66204e-05 4.51588e-05
76 1 2.7751 1.09073 0.816956 -4.8681e-05 4.18824e-05 2.5586e-05 6.91276e-05
77 1 3.69125 2.31307 2.98986 -4.58793e-05 -1.83883e-05 1.96867e-05 5.32034e-05
78 1 2.43118 0.689955 4.40517 8.61878e-06 -5.90294e-06 8.06371e-06 1.31966e-05
79 1 1.1864 11.1784 5.8489 -8.9811e-06 -2.4379e-05 -1.53727e-05 3.0188e-05
80 1 3.24641 1.87352 6.69131 -5.84367e-06 -4.08454e-05 5.49989e-06 4.16263e-05
81 1 3.99905 2.73387 12.2712 1.80807e-05 1.20538e-05 -7.07307e-06 2.28525e-05
82 1 3.6602 5.34795 12.6335 3.67718e-05 -3.52785e-06 4.2229e-06 3.71812e-05
83 1 2.43178 3.69317 1.17784 -1.2889e-05 -2.9654e-06 4.70574e-05 4.88807e-05
84 1 3.39809 4.90299 3.34506 8.08419e-07 -1.41227e-05 2.74953e-05 3.09207e-05
85 1 2.13262 3.24149 4.75824 4.37336e-05 -3.15981e-05 -2.35938e-05 5.88874e-05
86 1 3.02095 4.4594 6.9495 3.67249e-05 1.91128e-05 1.02926e-05 4.2661e-05
87 1 3.05827 1.50629 10.1895 1.38875e-05 -8.0924e-06 2.51515e-05 2.98487e-05
88 1 0.34818 3.84367 9.92095 -1.81937e-05 -1.48055e-06 -4.26941e-05 4.64327e-05
89 1 0.313629 9.95733 3.63102 -3.72443e-05 4.69463e-05 -6.67535e-06 6.02963e-05
90 1 0.00265671 9.45763 7.10959 -2.81524e-05 2.9826e-05 1.07102e-05 4.23894e-05
91 1 0.73439 1.30753 9.46507 -4.43471e-06 -1.36033e-05 1.4004e-05 2.00207e-05
92 1 1.79792 11.9101 11.5082 -3.32991e-05 -7.73786e-06 -3.06819e-05 4.59357e-05
93 1 1.23116 2.07642 2.55395 4.26497e-05 1.48453e-05 -3.85596e-05 5.9382e-05
94 1 0.836884 1.57475 6.19314 -3.50871e-05 -1.00938e-06 -2.64603e-05 4.39576e-05
95 1 1.48102 2.52103 11.8805 3.04319e-05 2.35299e-05 2.0371e-05 4.35285e-05
96 1 1.10456 5.06418 12.3171 3.11855e-06 -3.6119e-05 1.04489e-05 3.77291e-05
97 1 2.08339 9.35048 11.2037 -2.49103e-05 -3.72254e-05 -2.93207e-06 4.48871e-05
98 1 0.951494 4.68366 2.93676 4.35274e-05 3.84535e-05 4.54712e-06 5.82579e-05
99 1 11.3938 6.49765 10.3498 3.41876e-05 -9.16555e-06 -1.29014e-05 3.76729e-05
100 1 0.621548 7.32791 3.24256 1.69572e-05 4.91475e-05 -2.73803e-05 5.87597e-05
101 1 0.305063 6.89299 6.78474 -2.51108e-05 -2.93541e-06 1.1562e-05 2.78002e-05
102 1 11.1076 9.17456 10.6296 2.43755e-05 7.14616e-06 4.1151e-06 2.57326e-05
103 1 0.86605 7.62921 12.5896 1.25858e-05 1.06869e-05 -9.74427e-06 1.91719e-05
104 1 1.8586 8.97036 1.89654 -1.65791e-05 -9.40623e-06 -8.31304e-06 2.07954e-05
105 1 0.59974 4.28585 6.4496 -1.14557e-05 -2.19696e-05 4.60667e-06 2.52015e-05
106 1 8.01939 11.0932 1.33256 -5.58056e-05 2.51549e-06 -2.07489e-05 5.95912e-05
107 1 2.72721 4.16416 10.523 -6.15873e-07 1.73963e-05 -2.31572e-05 2.89701e-05
108 1 3.08801 7.53962 3.68202 -1.67754e-05 -5.87865e-06 -1.43606e-06 1.78336e-05
109 1 4.88097 0.958779 4.85546 -1.73217e-05 -1.60207e-05 8.31023e-06 2.50153e-05
110 1 5.78379 2.16187 7.00315 6.75879e-06 -1.53977e-05 1.47578e-05 2.23733e-05
111 1 5.53491 1.74572 10.5262 -3.019e-05 -1.5166e-05 5.25282e-06 3.41911e-05
112 1 6.50047 2.96762 12.669 -2.12617e-05 3.54933e-05 1.59953e-05 4.43585e-05
113 1 6.17498 5.60037 0.21223 -2.59544e-05 7.74217e-06 9.71244e-07 2.71019e-05
114 1 4.93522 3.9501 1.58706 2.33771e-05 3.57362e-05 2.26604e-05 4.83431e-05
115 1 6.16097 2.58105 3.4132 -2.09806e-06 -2.00268e-05 2.65258e-05 3.33031e-05
116 1 5.86581 5.16581 3.74845 1.32429e-05 -4.2663e-06 3.54717e-05 3.81027e-05
117 1 5.50436 4.76792 7.33742 7.12568e-06 2.69026e-05 2.59716e-05 3.80664e-05
118 1 4.21649 3.14653 8.75929 4.80249e-06 1.83496e-05 -1.19301e-05 2.24075e-05
119 1 5.21419 4.37384 10.8903 -2.63911e-06 -2.90621e-06 2.01657e-05 2.05442e-05
120 1 4.61735 6.56666 1.94663 1.41553e-05 -6.54398e-06 -1.55368e-05 2.20133e-05
121 1 5.55534 7.77963 4.09833 -2.15956e-06 -5.48978e-06 -1.10176e-05 1.24975e-05
122 1 4.307 6.11801 5.50996 -3.14742e-05 1.21023e-05 2.65893e-05 4.29428e-05
123 1 4.57802 3.51246 5.19402 1.6069e-05 -3.29809e-05 1.082e-05 3.82495e-05
124 1 2.12225 6.32275 1.54385 3.28594e-05 -1.24815e-05 8.11675e-06 3.60751e-05
125 1 5.24678 1.34201 1.24702 1.31708e-05 2.73364e-05 3.65283e-05 4.74875e-05
126 1 6.46117 12.0795 3.08188 -2.76672e-05 7.33074e-06 1.55576e-05 3.25769e-05
127 1 1.85442 5.89516 5.0681 2.40669e-05 -4.54716e-07 1.52634e-05 2.85025e-05
128 1 2.77557 7.12652 7.22591 4.64051e-05 -1.2425e-05 -7.1506e-06 4.8569e-05
129 1 1.52821 5.53919 8.6278 -9.35196e-06 -3.97065e-06 2.37769e-05 2.58566e-05
130 1 2.41951 6.71875 10.8523 6.59648e-06 -7.35754e-06 1.15563e-05 1.52051e-05
131 1 3.36822 7.96124 0.160397 -1.26218e-06 -3.71442e-05 -7.66153e-06 3.79471e-05
132 1 4.30766 9.21111 2.32251 -1.43399e-05 -8.84214e-06 -8.39144e-06 1.8821e-05
133 1 6.78539 0.360232 12.3175 -6.63097e-06 -1.14785e-05 6.89945e-06 1.49442e-05
134 1 1.54676 8.51761 5.39553 2.52047e-05 -2.04812e-05 -2.7955e-05 4.28514e-05
135 1 1.23546 8.1306 8.97257 -2.65698e-05 5.13622e-06 2.53584e-05 3.70861e-05
136 1 4.60497 9.59775 11.5803 1.91548e-05 2.99412e-05 7.52575e-06 3.6332e-05
137 1 2.76078 10.2064 4.08119 -1.18557e-05 2.77419e-05 8.09823e-06 3.1237e-05
138 1 3.64616 11.4308 6.27081 -1.65922e-05 2.86343e-05 6.34062e-06 3.36961e-05
139 1 0.97271 10.8566 9.1493 -2.28479e-05 4.86238e-05 -2.96996e-05 6.1387e-05
140 1 0.300989 0.847287 0.370585 -2.23481e-05 6.93144e-06 -9.72751e-06 2.53399e-05
141 1 2.48796 9.69641 7.55965 4.47058e-05 1.00031e-05 -1.40751e-05 4.79247e-05
142 1 10.4972 11.3449 1.75284 -3.6908e-05 -1.73475e-05 2.99489e-05 5.05971e-05
