ITEM: TIMESTEP
0
ITEM: NUMBER OF ATOMS
129
ITEM: BOX BOUNDS pp pp pp
0.0000000000000000e+00 1.1436527999999999e+01
0.0000000000000000e+00 1.1745825000000000e+01
0.0000000000000000e+00 1.1261291999999999e+01
ITEM: ATOMS id type x y z fx fy fz v_fmag
1 1 2.26496 10.7562 3.84771 -7.27658e-06 -2.72634e-05 3.02915e-06 2.83799e-05
2 1 9.02677 9.52954 0.22698 1.92375e-06 -2.89221e-05 3.40266e-05 4.4699e-05
3 1 7.0362 5.75063 9.27251 1.19241e-05 -1.56396e-05 1.25303e-05 2.33193e-05
4 1 7.77542 7.94465 8.43919 1.88599e-05 3.61648e-06 2.61386e-05 3.24346e-05
5 1 6.37249 6.49597 6.87311 1.56002e-05 -6.02912e-06 -4.23143e-06 1.72517e-05
6 1 8.21439 7.67616 3.96503 -1.53349e-05 1.19485e-05 2.76643e-05 3.38118e-05
7 1 6.72896 6.15774 2.42644 -1.65459e-05 9.67017e-06 1.58638e-05 2.48785e-05
8 1 8.45321 7.20548 10.8367 3.23576e-05 3.00431e-05 3.94289e-05 5.91966e-05
9 1 8.77133 3.95933 9.62321 -2.18505e-05 -1.3771e-05 -1.78507e-05 3.13964e-05
10 1 8.0969 4.7111 7.21612 -4.81919e-06 -2.4077e-05 2.68856e-06 2.47013e-05
11 1 6.71264 3.23445 5.60392 9.41813e-06 2.75276e-05 -4.38212e-07 2.90975e-05
12 1 7.44088 5.46672 4.81076 -1.31428e-05 -3.83579e-05 -4.67394e-05 6.1876e-05
13 1 6.01736 3.94664 3.23914 5.95724e-06 2.2582e-05 -5.94707e-05 6.38921e-05
14 1 7.7453 5.01652 0.408055 -2.18608e-05 -3.50006e-06 9.92504e-06 2.42621e-05
15 1 7.45359 8.37554 1.62374 2.56504e-05 3.87331e-05 -8.54393e-06 4.72355e-05
16 1 8.02402 1.7705 10.4074 -1.08107e-05 -2.47993e-05 3.89413e-06 2.73321e-05
17 1 8.44317 1.44389 5.93187 1.46659e-05 1.89348e-05 -3.13747e-05 3.94713e-05
18 1 7.78434 2.14001 3.51366 1.28462e-05 3.219e-05 -3.67461e-05 5.05123e-05
19 1 7.02727 2.8194 1.1975 2.84188e-06 4.21909e-05 -2.80848e-05 5.07632e-05
20 1 9.43932 3.11597 0.798747 -4.30046e-05 -2.42229e-05 -1.00507e-05 5.03702e-05
21 1 9.09744 0.717504 8.35826 -6.66098e-06 1.76957e-05 -3.28477e-05 3.79009e-05
22 1 9.54395 0.380364 3.8326 4.62494e-05 3.68722e-05 -3.28214e-05 6.76447e-05
23 1 4.97183 10.7911 10.1514 3.65026e-05 2.66053e-05 -1.76205e-05 4.84847e-05
24 1 5.38744 10.466 5.70089 3.26034e-05 9.76984e-06 1.34844e-05 3.66096e-05
25 1 4.68741 11.1899 3.32811 3.11573e-05 2.5335e-05 1.78068e-05 4.39286e-05
26 1 4.24169 8.6081 10.9945 -7.30315e-06 -1.92322e-05 -5.35692e-06 2.12582e-05
27 1 6.04444 9.72783 8.0925 3.28941e-05 1.06539e-06 4.2971e-05 5.41264e-05
28 1 4.6477 8.26726 6.54066 2.33085e-06 -9.951e-06 4.26598e-05 4.3867e-05
29 1 6.47653 9.45857 3.6157 -1.14141e-05 -1.49231e-05 3.78038e-05 4.2215e-05
30 1 9.82514 2.92234 7.56416 -2.05278e-05 -1.90954e-06 -2.26538e-05 3.06305e-05
31 1 8.77662 9.96868 4.69358 -2.09912e-05 -4.23813e-05 6.41215e-06 4.77276e-05
32 1 7.12336 8.68962 6.0248 3.03048e-05 1.13703e-05 3.23008e-06 3.25284e-05
33 1 8.35627 10.2729 9.15649 4.93415e-06 -1.79247e-05 2.74961e-05 3.31915e-05
34 1 8.19051 10.8159 2.22753 -3.87083e-05 -3.19252e-05 1.25939e-05 5.17315e-05
35 1 10.0913 8.47991 9.49743 -1.96407e-05 -3.26726e-05 1.73417e-05 4.18807e-05
36 1 10.8124 10.6968 8.75518 1.82886e-05 -1.71437e-06 -1.1239e-05 2.15344e-05
37 1 9.42356 9.22649 7.12096 -6.47661e-06 -2.95532e-05 1.19043e-05 3.25124e-05
38 1 11.2663 10.3379 4.17758 2.16427e-05 2.28606e-05 8.85758e-06 3.27027e-05
39 1 9.89345 9.0542 2.55845 8.52836e-06 6.16126e-06 -4.96712e-06 1.16347e-05
40 1 0.002633 9.97939 11.196 5.13007e-05 2.49207e-05 5.54933e-06 5.73027e-05
41 1 9.50852 6.15313 8.79847 2.1116e-05 1.4158e-05 1.56204e-05 2.98384e-05
42 1 11.1533 7.43831 7.47341 -1.34456e-05 -1.82515e-05 2.17476e-05 3.14143e-05
43 1 8.84482 6.90472 6.38833 -1.04729e-05 -4.18187e-07 -1.47259e-07 1.04823e-05
44 1 10.4825 8.19395 5.07047 -2.83735e-05 -6.35686e-05 2.26358e-05 7.32011e-05
45 1 9.17947 6.59404 1.97033 5.04747e-05 3.33192e-05 -3.72941e-05 7.10544e-05
46 1 10.7808 7.73791 0.593062 -3.89508e-05 -2.41777e-05 5.45941e-05 7.12899e-05
47 1 11.2361 4.36513 9.15394 1.63767e-05 4.79011e-05 1.04609e-06 5.0634e-05
48 1 10.5671 5.1186 6.75141 -5.44705e-06 2.35333e-05 5.53684e-06 2.47819e-05
49 1 9.15265 3.67262 5.1656 4.73774e-06 3.34002e-06 -2.09281e-05 2.1716e-05
50 1 9.91875 5.87291 4.34132 -5.88244e-06 5.17761e-07 -1.15337e-05 1.29575e-05
51 1 8.463 4.38442 2.77551 1.48019e-07 -3.2588e-05 -3.67952e-05 4.91517e-05
52 1 10.1822 5.37761 11.2132 2.79185e-06 -2.04715e-05 4.19595e-05 4.67705e-05
53 1 10.4976 2.16801 9.96669 -3.86686e-05 -1.63813e-05 -3.40312e-05 5.4053e-05
54 1 10.8857 1.87452 5.5279 -1.39356e-07 -3.25575e-05 -2.74969e-05 4.26156e-05
55 1 10.2098 2.61687 3.1579 -3.2484e-05 -3.8046e-05 3.81134e-06 5.0172e-05
56 1 11.0639 1.27538 1.21806 -1.19862e-05 -1.84956e-05 -4.72107e-06 2.25398e-05
57 1 0.443468 3.56865 0.318617 -3.53503e-05 -3.35109e-05 1.06891e-05 4.98686e-05
58 1 0.120183 1.13069 7.90979 -3.69613e-05 -4.52149e-05 -1.4166e-05 6.00932e-05
59 1 7.29018 11.3303 11.1847 -1.12204e-05 -3.53836e-05 1.32163e-05 3.94027e-05
60 1 7.70111 11.0023 6.77054 -1.6098e-06 -1.25564e-06 -1.8562e-05 1.8674e-05
61 1 6.33457 0.657413 1.99368 -6.06051e-06 -1.99548e-05 -9.71122e-06 2.3005e-05
62 1 6.70769 9.00528 10.4836 2.75841e-05 2.84427e-05 2.19255e-05 4.52835e-05
63 1 4.98603 7.92191 2.09849 -1.10294e-05 -3.94267e-06 -8.53369e-06 1.44919e-05
64 1 10.1694 11.4023 6.27415 -7.54177e-06 9.31159e-06 -1.41995e-05 1.85799e-05
65 1 5.68292 10.1084 1.27429 -1.09105e-05 2.76827e-05 2.46491e-05 3.86387e-05
66 1 5.29981 7.53336 8.93837 -7.50995e-07 -1.81511e-05 -7.59108e-06 1.96888e-05
67 1 3.82354 3.11417 10.5833 -7.80268e-06 -2.57509e-05 -5.55131e-05 6.16903e-05
68 1 3.17163 3.86531 8.1784 -3.82922e-05 7.49269e-07 -3.56584e-05 5.23295e-05
69 1 1.91668 2.28799 5.06472 2.08861e-05 2.69715e-05 2.9006e-05 4.47777e-05
70 1 2.50594 4.60818 5.77822 -9.0201e-06 8.02842e-07 -1.15192e-05 1.46526e-05
71 1 1.18928 2.99184 2.67381 5.52924e-05 3.86816e-05 -1.06123e-05 6.83091e-05
72 1 3.5328 6.40954 0.549965 2.99247e-05 2.27081e-05 -6.00081e-06 3.80415e-05
73 1 3.24269 0.819886 9.82427 -1.28861e-05 3.28033e-05 -1.24103e-05 3.73647e-05
74 1 4.90122 2.08897 8.50692 -2.53165e-05 -1.01609e-05 -3.68545e-05 4.58522e-05
75 1 3.64964 0.504857 5.3857 6.86905e-06 1.67634e-05 3.2003e-06 1.83967e-05
76 1 2.92972 1.20108 3.0061 2.70389e-05 4.39502e-05 2.40866e-06 5.16578e-05
77 1 2.13205 1.79264 0.664539 1.42711e-05 2.75436e-06 -2.11132e-06 1.4687e-05
78 1 2.824 4.18678 1.34022 -3.97628e-05 -4.14399e-05 3.20102e-06 5.75204e-05
79 1 4.31661 11.5149 7.76512 1.11004e-05 6.06816e-06 6.46515e-06 1.42071e-05
80 1 2.5144 7.52757 2.58868 -3.34467e-06 2.70456e-05 1.32149e-05 3.02867e-05
81 1 1.10254 8.91472 9.11271 1.41721e-05 -2.93113e-05 -2.40524e-06 3.26464e-05
82 1 0.0935587 7.23313 2.97614 -1.47207e-05 1.22197e-05 -3.88821e-06 1.95228e-05
83 1 0.382169 6.68809 9.86725 -2.12376e-05 -9.09365e-06 3.22541e-05 3.96744e-05
84 1 0.769852 6.39707 5.42042 1.79851e-05 -1.81031e-05 2.14835e-05 3.33576e-05
85 1 1.09505 5.96769 0.980664 -2.84853e-05 -3.03013e-05 4.88323e-06 4.18739e-05
86 1 1.52099 2.58272 9.49804 2.7551e-07 2.50528e-05 -1.50043e-05 2.92036e-05
87 1 0.85845 3.33302 7.10591 -2.61611e-05 6.5485e-05 1.86484e-05 7.29414e-05
88 1 0.183995 4.0674 4.72029 1.17214e-05 2.91201e-05 1.4268e-05 3.44811e-05
89 1 10.9031 4.80236 2.32585 4.43163e-05 2.70478e-05 -2.28409e-05 5.67206e-05
90 1 2.58851 1.55088 7.43641 -2.01716e-05 -1.06017e-06 1.00682e-05 2.25696e-05
91 1 1.18881 0.0786265 5.86823 -1.32552e-05 -4.74773e-05 -2.75051e-06 4.93697e-05
92 1 0.528749 0.823211 3.52845 -2.88743e-05 -5.2481e-05 3.28313e-05 6.83072e-05
93 1 0.765636 0.39916 10.3406 -1.02909e-05 2.61652e-06 -2.30249e-05 2.53554e-05
94 1 1.84493 11.1014 8.267 -3.19586e-05 -3.60739e-06 3.02147e-06 3.23032e-05
95 1 0.447926 9.6378 6.67613 -3.58482e-06 8.87512e-07 1.45321e-05 1.4994e-05
96 1 1.79493 5.3336 3.37603 -1.59159e-05 2.61099e-06 -2.1857e-05 2.71636e-05
97 1 3.24295 6.79975 4.9688 1.8865e-05 1.59358e-05 1.16271e-06 2.47222e-05
98 1 1.44324 5.65086 7.82982 -5.40149e-06 1.51589e-05 2.03488e-06 1.62206e-05
99 1 3.90395 6.06988 7.36779 1.24637e-05 2.20194e-05 -1.89187e-06 2.53728e-05
100 1 5.72445 7.23946 4.46808 -1.03922e-06 -2.21904e-05 4.28602e-05 4.82752e-05
101 1 4.26131 5.7303 2.91447 1.97206e-05 7.21814e-08 -1.6575e-05 2.57612e-05
102 1 5.99904 6.82173 0.0630862 -2.08239e-05 1.71114e-05 3.4329e-05 4.36453e-05
103 1 6.29944 3.55397 10.0806 1.26182e-05 2.27984e-05 -1.68869e-05 3.10508e-05
104 1 5.63755 4.28789 7.68386 2.11015e-05 3.1439e-05 9.58704e-06 3.90589e-05
105 1 4.24388 2.82507 6.11322 1.23507e-06 3.95133e-07 8.04865e-06 8.15244e-06
106 1 4.97741 5.02759 5.29323 7.58783e-06 2.4376e-05 -5.28408e-06 2.60708e-05
107 1 3.5489 3.53362 3.72539 1.52891e-05 -1.73963e-05 2.83247e-06 2.33326e-05
108 1 5.28414 4.62166 0.876143 7.97522e-06 4.77347e-05 -3.4697e-05 5.9549e-05
109 1 5.56567 1.35543 10.8857 -2.35214e-05 -2.40978e-05 -3.35339e-05 4.75234e-05
110 1 7.36795 2.5026 8.01105 -1.68019e-05 1.43578e-05 -2.70259e-05 3.4912e-05
111 1 5.97235 1.03943 6.44038 -5.70363e-06 -1.66036e-05 -1.78134e-05 2.50106e-05
112 1 5.30218 1.75219 4.05323 2.20337e-05 -4.73594e-06 -8.0299e-06 2.39247e-05
113 1 3.90941 0.11048 0.958416 -1.59807e-06 2.0394e-05 1.11999e-05 2.33218e-05
114 1 4.56962 2.42169 1.68188 -4.66509e-05 -1.92416e-05 -1.56905e-05 5.28463e-05
115 1 6.62648 0.305234 8.82116 -2.42571e-05 -3.64861e-05 -1.0565e-05 4.50696e-05
116 1 7.0478 11.7282 4.38194 1.39374e-05 -2.06822e-05 -1.60191e-05 2.96414e-05
117 1 2.4993 10.3937 10.6708 -9.17233e-06 -1.57779e-05 -4.07869e-06 1.87005e-05
118 1 2.92397 10.0464 6.21508 7.86329e-06 7.09481e-06 1.4322e-06 1.06873e-05
119 1 1.35212 11.2638 1.55448 -1.08623e-05 2.17234e-05 -3.97884e-05 4.66156e-05
120 1 1.76473 8.22319 0.270703 5.71531e-05 1.06943e-05 1.42496e-05 5.98656e-05
121 1 3.57186 9.31908 8.60669 6.17271e-07 -3.29912e-05 1.93562e-05 3.82552e-05
122 1 2.17493 7.85405 7.03488 2.94476e-05 3.32403e-05 9.47074e-06 4.54068e-05
123 1 3.9975 8.98872 4.15467 -2.71671e-05 1.14899e-05 1.22502e-05 3.19396e-05
124 1 1.51991 8.58025 4.63278 2.26357e-05 3.01209e-05 4.58034e-05 5.93093e-05
125 1 3.22155 9.68288 1.79187 -3.97359e-06 -3.27567e-05 -1.03945e-05 3.45953e-05
126 1 2.09868 4.89503 10.2309 -1.26926e-05 -2.05386e-05 1.5409e-05 2.86422e-05
127 1 2.82851 7.12238 9.44646 -5.56367e-06 -2.43737e-05 3.47678e-05 4.28233e-05
128 1 4.56461 5.3277 9.75987 -1.40336e-06 1.06193e-05 2.53442e-05 2.75149e-05
129 1 9.71366 0.0129501 10.8382 4.49589e-05 3.83838e-05 -2.28839e-05 6.339e-05
