ITEM: TIMESTEP
0
ITEM: NUMBER OF ATOMS
135
ITEM: BOX BOUNDS pp pp pp
0.0000000000000000e+00 1.1436527999999999e+01
0.0000000000000000e+00 1.1745825000000000e+01
0.0000000000000000e+00 1.1261291999999999e+01
ITEM: ATOMS id type x y z fx fy fz v_fmag
1 1 1.07851 1.12673 1.17918 -4.27901e-05 -4.77991e-05 -6.44962e-05 9.09698e-05
2 1 4.39152 10.2677 1.10585 6.82824e-05 4.0987e-05 -1.80936e-06 7.96599e-05
3 1 6.9855 10.9961 9.74177 2.36486e-05 2.99683e-06 2.15972e-05 3.21664e-05
4 1 6.48 10.8665 6.18515 6.68091e-06 -1.20087e-05 -1.01682e-06 1.37796e-05
5 1 6.03364 11.1546 2.66595 1.45199e-06 -3.14978e-05 -1.07403e-05 3.33102e-05
6 1 7.55314 8.6853 10.0737 -5.211e-05 7.19193e-05 1.96172e-05 9.09542e-05
7 1 7.99611 9.65404 7.87866 4.56079e-05 2.96676e-05 2.22373e-06 5.44535e-05
8 1 6.62265 8.4875 6.41624 -7.57111e-05 -1.58288e-05 4.89364e-05 9.15287e-05
9 1 7.47113 9.66547 4.0628 8.15558e-05 -1.64292e-05 8.807e-07 8.31988e-05
10 1 8.07611 7.93704 1.1409 -8.96216e-06 8.89582e-06 -2.26133e-05 2.59001e-05
11 1 6.66302 6.489 10.996 8.09317e-07 -1.37908e-05 3.44717e-05 3.71367e-05
12 1 8.0744 6.64003 9.0494 5.75333e-06 -2.27082e-06 -6.13374e-05 6.16485e-05
13 1 7.42522 6.28433 5.83239 9.79049e-07 -1.14164e-05 4.95548e-05 5.08623e-05
14 1 8.34503 7.42617 3.84337 3.71819e-05 1.45789e-05 -7.86126e-07 3.99457e-05
15 1 6.81954 6.30213 2.38606 -2.18124e-05 3.35576e-05 5.74102e-06 4.04333e-05
16 1 3.56144 11.5667 3.00579 2.87035e-05 5.25074e-05 5.64112e-06 6.01061e-05
17 1 7.5635 4.25989 9.77058 3.72729e-06 2.76861e-05 -3.76404e-05 4.68744e-05
18 1 7.23529 3.84189 5.82782 1.71714e-05 -1.16724e-05 -2.17776e-05 3.00893e-05
19 1 8.28661 4.96337 3.8609 3.82424e-05 -1.10541e-05 -2.63675e-05 4.77485e-05
20 1 6.66714 3.55569 2.81953 -6.41763e-05 2.987e-05 -3.28125e-05 7.80223e-05
21 1 7.84111 4.56682 1.08476 6.3925e-06 5.50128e-05 -9.59745e-05 0.000110808
22 1 7.18674 1.68959 9.713 -1.28532e-05 -5.09442e-06 2.43259e-05 2.79805e-05
23 1 8.3122 2.80764 7.75825 4.11515e-05 -1.44223e-05 5.23572e-05 6.81376e-05
24 1 6.68059 1.56198 6.25853 4.02217e-05 -3.07399e-05 1.21445e-06 5.0638e-05
25 1 9.07142 2.66354 3.45471 5.56904e-06 -7.17231e-05 1.6059e-05 7.37096e-05
26 1 7.60063 1.52849 1.8995 -3.10255e-05 2.21712e-05 2.53206e-05 4.57741e-05
27 1 8.79356 2.71397 11.2007 6.5638e-06 -1.3637e-05 3.85547e-05 4.14188e-05
28 1 8.0713 0.328525 7.75375 -6.05172e-05 2.23243e-05 -2.02286e-05 6.7601e-05
29 1 10.0168 0.263019 3.80303 -2.02434e-05 -5.79363e-05 3.96404e-05 7.306e-05
30 1 8.51408 0.282086 0.00523514 -2.08152e-05 4.10993e-05 -2.8306e-05 5.40708e-05
31 1 1.95499 10.6305 1.33669 -3.5597e-05 4.18441e-05 -6.61745e-05 8.60066e-05
32 1 8.87932 5.11272 7.42099 1.67154e-05 1.9099e-05 -7.79625e-06 2.65511e-05
33 1 4.45776 11.1222 10.1164 -2.05772e-05 3.29523e-05 -1.69175e-05 4.23731e-05
34 1 10.978 0.0974106 10.8667 -1.27858e-05 -1.12856e-05 3.88039e-05 4.23861e-05
35 1 10.5014 0.150256 7.26745 4.07574e-05 3.19955e-05 5.75608e-05 7.74475e-05
36 1 0.340224 9.54725 11.0221 2.17239e-05 1.42151e-05 1.35475e-05 2.92836e-05
37 1 9.74961 8.99043 2.63259 -4.40829e-05 -1.74868e-05 7.80904e-05 9.1363e-05
38 1 11.4346 7.35593 6.8286 2.91303e-05 -4.94674e-05 -1.21722e-05 5.86835e-05
39 1 0.852031 8.2447 9.02897 -1.34825e-05 2.35352e-05 -2.94994e-05 4.00737e-05
40 1 6.93548 10.0509 0.69984 -9.61446e-06 -1.25049e-05 -1.04468e-05 1.89195e-05
41 1 9.48094 10.8104 9.31188 -3.92725e-05 -5.78883e-05 -3.32799e-05 7.74657e-05
42 1 8.89077 10.7616 5.71774 -4.59544e-06 -5.80002e-05 3.84563e-05 6.97426e-05
43 1 8.49399 11.0228 2.26526 -5.81616e-05 -5.154e-05 -2.81902e-05 8.2667e-05
44 1 9.87138 8.47573 9.47346 9.41377e-06 2.18702e-05 2.28015e-05 3.29672e-05
45 1 10.4511 9.50794 7.31164 4.82095e-07 9.5527e-06 6.05292e-05 6.12803e-05
46 1 8.96977 7.6203 7.10569 -1.31836e-05 -1.55476e-05 -2.66793e-05 3.35756e-05
47 1 9.94432 8.66403 5.09065 5.94959e-05 1.22519e-05 -1.8357e-05 6.34574e-05
48 1 10.5808 7.55811 0.401532 5.75591e-06 1.48461e-05 8.64821e-05 8.79358e-05
49 1 9.27625 5.71409 10.8961 1.13385e-05 8.13069e-05 -1.53917e-05 8.35241e-05
50 1 0.15477 1.24669 5.34928 -6.12107e-05 1.22886e-05 -5.7399e-06 6.26953e-05
51 1 10.5633 6.33526 8.91156 1.4328e-05 -3.48192e-05 -4.75738e-05 6.06707e-05
52 1 10.9614 7.12056 3.45795 -6.16392e-06 4.16336e-07 2.27608e-05 2.35844e-05
53 1 9.38945 6.13269 2.02605 3.8336e-05 -2.37481e-05 3.04335e-05 5.44043e-05
54 1 9.96344 3.94527 9.26458 2.34224e-05 -9.07669e-06 -2.62308e-06 2.52562e-05
55 1 11.2894 4.94383 7.10223 2.87668e-06 -3.72916e-06 3.64961e-05 3.67987e-05
56 1 9.65449 3.7618 5.55742 -4.68253e-06 -4.21401e-05 2.9284e-05 5.15293e-05
57 1 10.737 4.68261 3.57327 -2.50475e-06 -7.69191e-06 -2.33759e-05 2.47361e-05
58 1 10.2886 3.89493 1.37725 -9.38489e-06 2.80744e-05 2.89562e-05 4.14091e-05
59 1 0.214619 5.04712 10.6913 -1.45898e-05 3.48457e-05 2.42108e-05 4.48692e-05
60 1 9.65195 1.46695 9.27648 3.19388e-05 6.02221e-05 -8.77074e-06 6.87293e-05
61 1 10.7678 2.57358 7.32403 -2.08771e-05 6.59676e-06 2.63363e-06 2.20524e-05
62 1 9.10118 1.4877 5.75763 -1.92971e-05 -3.25134e-05 -1.43208e-05 4.043e-05
63 1 0.172358 2.37507 3.14863 -1.38171e-05 4.58812e-06 -6.27632e-06 1.58542e-05
64 1 10.0664 1.36657 1.56494 1.2322e-05 -6.77806e-05 4.40427e-05 8.17668e-05
65 1 11.2405 2.53938 10.8138 2.77635e-05 -2.0367e-05 2.90201e-05 4.5031e-05
66 1 9.87724 6.15693 5.37822 -1.21233e-05 1.07021e-05 -1.94494e-05 2.52941e-05
67 1 9.3944 9.78093 0.263889 3.80682e-06 3.20484e-05 -4.4241e-05 5.47619e-05
68 1 4.05599 11.2396 6.62694 -1.49973e-05 -5.87459e-05 -4.52069e-06 6.07983e-05
69 1 5.20917 8.73446 10.6736 1.07778e-05 -1.4452e-05 3.71083e-05 4.12559e-05
70 1 2.46739 7.01954 6.6902 -4.11618e-05 -3.10728e-05 9.24029e-05 0.000105821
71 1 3.52416 7.87766 4.70236 -6.9617e-05 9.21068e-06 -0.000131413 0.000149
72 1 2.05909 6.87964 3.05871 5.5686e-05 4.24569e-05 -5.45359e-06 7.02372e-05
73 1 2.66278 4.64926 10.3452 1.77702e-05 2.1936e-05 3.3747e-05 4.3998e-05
74 1 3.97043 5.64869 8.30914 1.06135e-05 -3.87367e-05 -4.62059e-05 6.12222e-05
75 1 2.26339 4.62241 6.82133 -1.94954e-05 1.48454e-06 5.58778e-06 2.03346e-05
76 1 3.35876 5.53885 4.80456 1.23841e-06 3.8969e-05 1.26439e-05 4.09876e-05
77 1 1.72868 4.43662 3.2657 -3.59289e-05 1.67769e-05 -3.93008e-05 5.58293e-05
78 1 2.87712 5.4647 1.28459 -3.46999e-05 -5.76281e-05 -2.50804e-05 7.17921e-05
79 1 2.23488 2.22972 10.4369 -7.045e-05 -6.00945e-05 5.69829e-05 0.000108727
80 1 3.46314 3.28528 8.49041 1.82538e-05 -2.20867e-05 -5.1045e-05 5.85373e-05
81 1 1.80154 2.24873 6.96004 6.96491e-06 6.66293e-06 2.38222e-05 2.56983e-05
82 1 3.00987 3.20257 4.95411 3.34955e-05 -4.70062e-05 2.21359e-05 6.18185e-05
83 1 2.63612 2.09724 2.78668 1.25941e-05 -7.0361e-07 -4.10122e-05 4.29081e-05
84 1 3.32952 7.89515 8.83403 -4.03668e-05 1.40152e-05 3.80317e-05 5.72041e-05
85 1 3.82006 3.1844 0.734153 -5.25582e-06 1.77227e-05 -6.68258e-06 1.96564e-05
86 1 5.08184 0.481965 4.68345 -5.59375e-05 -3.6557e-05 4.79373e-07 6.68255e-05
87 1 3.52439 0.788906 0.754239 4.13189e-06 -1.16033e-05 -2.72596e-05 2.99131e-05
88 1 11.4254 10.5519 5.24468 -5.01292e-05 7.74805e-06 2.12569e-05 5.49984e-05
89 1 0.461078 10.5693 8.8475 -3.93942e-05 4.21058e-05 -6.29047e-05 8.53335e-05
90 1 0.785806 8.58646 1.95463 2.23756e-05 4.86833e-05 1.90215e-05 5.68555e-05
91 1 1.05548 8.46186 4.62653 3.27614e-05 5.44687e-05 -7.61095e-05 9.91605e-05
92 1 1.5468 6.01987 8.71649 3.19864e-05 -2.60035e-05 -4.55776e-05 6.14543e-05
93 1 0.946207 5.96297 5.07145 6.37863e-05 8.00142e-05 1.34721e-05 0.000103211
94 1 0.422862 5.84456 1.63584 -6.32684e-06 -3.72154e-05 -3.05015e-05 4.8532e-05
95 1 0.984668 3.63699 8.83464 -1.12845e-05 -1.82506e-05 -4.58763e-06 2.19425e-05
96 1 0.627361 3.55025 5.2726 1.61929e-05 1.74714e-05 -1.57854e-05 2.85769e-05
97 1 1.35596 3.54983 1.09425 3.24393e-05 5.48478e-05 2.05796e-05 6.69635e-05
98 1 0.643541 1.21102 8.8756 -1.59966e-05 -2.29285e-05 -4.54539e-05 5.33635e-05
99 1 2.63706 0.921056 5.01123 -4.92649e-05 3.37179e-05 9.62783e-06 6.04701e-05
100 1 3.11904 0.860013 8.53431 -7.84761e-06 -2.73165e-05 -3.73393e-06 2.86656e-05
101 1 3.00776 9.23647 2.9186 9.2889e-05 -3.80601e-05 8.19042e-05 0.000129558
102 1 1.60263 7.0823 11.0548 -8.19328e-06 1.92157e-05 -1.59369e-05 2.62746e-05
103 1 2.57275 10.2832 5.00463 5.04786e-05 4.57701e-05 -3.91054e-05 7.85635e-05
104 1 5.49634 9.77822 8.34665 -4.80114e-05 -7.16454e-05 -3.6852e-05 9.37882e-05
105 1 4.09742 8.88473 6.70441 5.69353e-05 0.000142706 0.000174123 0.000232219
106 1 4.96988 9.82995 4.45977 -1.04628e-05 7.27888e-06 2.48334e-05 2.79133e-05
107 1 5.75118 8.56094 2.14914 4.02956e-05 1.56846e-06 1.27708e-05 4.23e-05
108 1 4.20391 6.50949 10.605 1.39685e-05 -1.40944e-05 2.80361e-05 3.43482e-05
109 1 5.78194 7.41722 8.64183 1.37777e-05 -6.42358e-05 -1.49879e-05 6.73847e-05
110 1 4.97845 6.65912 6.35179 2.82845e-07 -9.73936e-05 7.28675e-05 0.000121636
111 1 5.9737 7.64429 4.32861 -4.68886e-06 -1.29976e-05 -1.96541e-05 2.40252e-05
112 1 4.44861 6.53492 2.83435 -3.17412e-05 4.68606e-05 6.25015e-06 5.69428e-05
113 1 5.17283 4.37116 9.99903 2.83417e-05 1.61581e-07 -1.94844e-05 3.43935e-05
114 1 6.4452 5.2612 7.84302 2.9698e-05 8.9392e-07 -3.77349e-05 4.80281e-05
115 1 4.72154 4.25073 6.43329 -9.65075e-07 1.32539e-05 9.05997e-06 1.60835e-05
116 1 5.78806 5.21889 4.39862 -1.78407e-05 6.04719e-06 1.78189e-05 2.59302e-05
117 1 4.16018 4.05497 2.95232 4.95786e-06 1.1016e-05 1.25269e-05 1.74027e-05
118 1 3.51323 7.86483 1.13481 1.84208e-05 -6.19084e-06 -2.02905e-05 2.80955e-05
119 1 5.31159 5.04718 1.0738 -1.30909e-05 1.86234e-05 -1.75855e-06 2.28319e-05
120 1 5.90396 2.9586 8.12614 3.34127e-06 -4.06743e-05 1.87923e-05 4.493e-05
121 1 4.24947 1.88488 6.62286 -5.1311e-05 -2.16958e-05 1.647e-05 5.80929e-05
122 1 5.39439 2.78098 4.61967 2.03737e-05 3.0083e-05 -6.79514e-05 7.7055e-05
123 1 5.1071 1.71647 2.41662 -1.9459e-05 2.20359e-05 -1.36746e-05 3.24226e-05
124 1 6.26788 2.90246 0.390341 3.87324e-05 -1.12998e-05 5.19449e-06 4.068e-05
125 1 5.59766 0.500165 8.19509 1.78725e-05 2.61329e-05 -2.29046e-05 3.90765e-05
126 1 7.49839 0.637271 4.1675 -7.1185e-06 -7.6101e-05 -1.03822e-07 7.64332e-05
127 1 5.97726 0.48653 0.407437 -3.71467e-06 8.17484e-06 2.88469e-05 3.02121e-05
128 1 1.97112 11.563 10.4157 -1.32146e-06 2.34994e-05 4.96907e-05 5.49831e-05
129 1 1.53058 11.6023 6.90604 2.73203e-07 3.17613e-05 -1.19058e-05 3.39206e-05
130 1 1.12303 11.6935 3.41009 -1.33061e-05 -1.87757e-05 8.01792e-06 2.43694e-05
131 1 2.73071 9.27688 10.6974 -6.8444e-06 -4.32794e-06 -4.08295e-05 4.16248e-05
132 1 2.91512 10.2115 8.49738 4.62792e-06 -1.83991e-05 4.85905e-06 1.95846e-05
133 1 1.5017 9.21036 6.88753 3.04066e-06 6.17476e-06 -7.7932e-05 7.82353e-05
134 1 4.70593 1.88139 10.0753 -2.17281e-05 -2.17243e-05 -1.40164e-05 3.37715e-05
135 1 10.9994 10.8387 1.82757 3.6295e-05 -5.15112e-06 -2.8275e-05 4.62962e-05
