ITEM: TIMESTEP
0
ITEM: NUMBER OF ATOMS
136
ITEM: BOX BOUNDS pp pp pp
0.0000000000000000e+00 1.1464695000000001e+01
0.0000000000000000e+00 1.1317634999999999e+01
0.0000000000000000e+00 1.1648808000000001e+01
ITEM: ATOMS id type x y z fx fy fz v_fmag
1 1 0.329283 0.813936 8.20336 2.45095e-05 -1.05707e-05 -3.94517e-05 4.76329e-05
2 1 8.17783 2.61714 0.973896 4.53221e-05 -9.33704e-07 -8.00221e-06 4.60326e-05
3 1 9.67649 0.919161 0.172253 8.42175e-07 6.17468e-05 -4.68009e-05 7.74836e-05
4 1 9.71107 0.276965 9.41505 3.58285e-06 5.00322e-05 -2.38443e-05 5.55393e-05
5 1 10.4055 1.72967 6.44215 6.81311e-06 -1.70231e-05 -6.58422e-05 6.83477e-05
6 1 8.64216 0.335056 5.4018 2.79608e-05 -2.89754e-05 3.03135e-05 5.04012e-05
7 1 9.56137 1.60063 2.50688 -4.57065e-05 5.27932e-05 2.59084e-05 7.44812e-05
8 1 8.07867 10.633 11.0079 6.03041e-05 5.0282e-05 7.9832e-06 7.89214e-05
9 1 5.20129 10.0785 7.97212 -4.53865e-05 -5.58372e-05 -1.88837e-05 7.4393e-05
10 1 7.6978 10.2377 7.63432 2.78582e-05 -2.75791e-05 -2.8085e-05 4.8223e-05
11 1 5.21218 9.12227 5.63437 -3.20438e-05 -4.90952e-05 -8.60752e-06 5.92557e-05
12 1 6.43584 10.3708 3.68053 4.31411e-07 -3.64824e-05 -2.65923e-05 4.51476e-05
13 1 4.58898 9.06492 1.93483 8.54817e-06 4.15152e-05 4.36597e-05 6.08503e-05
14 1 5.13382 0.0754402 2.02808 4.30302e-05 -1.63312e-05 9.87708e-06 4.70729e-05
15 1 6.71035 9.10483 9.64625 0.000102442 -2.65116e-05 -2.09351e-05 0.000107868
16 1 10.0373 3.95636 2.72411 1.44842e-05 -2.43523e-05 -2.87397e-05 4.03583e-05
17 1 5.57202 7.00145 9.28359 1.04121e-05 -3.91799e-06 5.28128e-06 1.23148e-05
18 1 5.18449 6.68587 5.80263 1.16285e-05 8.47602e-06 6.17742e-05 6.3428e-05
19 1 6.10974 8.0052 3.679 6.72897e-06 3.56758e-05 -1.23374e-05 3.83438e-05
20 1 4.6194 6.62453 2.15543 -2.89504e-05 -1.8257e-05 8.94936e-06 3.5377e-05
21 1 5.80539 7.78744 0.267202 9.66482e-05 -0.00014184 0.000118605 0.00020863
22 1 7.07339 5.98353 10.9788 -2.59662e-05 5.92899e-05 3.07898e-05 7.16767e-05
23 1 5.44694 4.65451 9.47102 -3.23123e-06 -6.41146e-06 4.55534e-06 8.50287e-06
24 1 6.71991 5.62495 7.5148 -3.97361e-05 -1.78039e-05 9.65205e-06 4.45993e-05
25 1 5.17704 4.26596 6.21089 -4.77826e-05 -6.27843e-05 -2.00737e-05 8.14125e-05
26 1 6.08542 5.5993 3.78718 -8.42396e-05 -1.47613e-06 -3.66155e-06 8.43321e-05
27 1 6.0665 4.74451 1.45845 -3.27404e-05 3.69144e-05 8.91395e-05 0.000101885
28 1 6.81891 3.65259 11.0713 -4.32856e-05 5.22075e-05 1.01309e-05 6.85704e-05
29 1 5.12854 2.24775 9.7795 6.38795e-05 1.69311e-05 5.52909e-05 8.61646e-05
30 1 6.65446 3.16849 8.04532 -7.98368e-05 -2.45031e-05 -1.34206e-05 8.45838e-05
31 1 6.69071 2.319 5.74284 -5.36906e-06 -7.04345e-06 2.27662e-05 2.44282e-05
32 1 6.63233 8.09279 7.3169 6.3458e-06 -2.58271e-05 1.87776e-05 3.25562e-05
33 1 7.56351 3.69857 3.08166 3.99464e-05 -6.42868e-05 1.99668e-05 7.82764e-05
34 1 9.03268 2.66457 4.70189 2.77807e-05 -3.56268e-05 1.42002e-05 4.73569e-05
35 1 8.14677 2.04283 9.95461 -4.663e-05 0.000100563 -9.60793e-06 0.000111263
36 1 9.48756 9.6806 1.07226 -1.76455e-06 4.85839e-05 -2.33579e-05 5.39361e-05
37 1 10.6281 7.37906 8.67019 -1.64087e-05 1.88533e-05 1.48707e-05 2.90832e-05
38 1 10.0775 7.31243 4.95869 1.45832e-05 -7.91696e-05 4.84424e-06 8.06472e-05
39 1 9.61415 7.15492 1.36728 1.82483e-05 6.44487e-05 -2.70425e-05 7.22353e-05
40 1 10.6758 4.96404 8.84406 -2.30164e-05 4.25898e-05 -5.64507e-05 7.43662e-05
41 1 10.0423 4.88427 5.07151 -5.51618e-05 1.15147e-05 -2.34572e-05 6.10381e-05
42 1 10.2039 2.62861 8.71935 5.70508e-05 -5.11923e-05 9.26169e-06 7.7209e-05
43 1 11.1791 2.67686 0.985102 2.88127e-05 -6.6891e-05 2.02597e-05 7.55979e-05
44 1 10.7967 0.694548 4.16158 -7.12736e-05 -7.66796e-06 -9.6742e-05 0.000120407
45 1 11.2481 10.5329 11.2062 -5.92494e-05 7.11933e-05 -2.30066e-05 9.54373e-05
46 1 9.15205 9.26715 9.30734 3.40404e-05 3.2018e-05 -5.42335e-06 4.70459e-05
47 1 10.0116 10.6612 7.20364 6.37066e-05 -4.46965e-06 -3.15106e-05 7.1214e-05
48 1 7.76805 9.34609 5.33797 4.06205e-05 1.99491e-05 1.04682e-05 4.64497e-05
49 1 8.90762 10.6618 3.195 1.85689e-05 -4.89938e-05 -3.46114e-07 5.23958e-05
50 1 8.8737 3.5698 7.01897 -5.81688e-05 6.7521e-05 2.01087e-05 9.13622e-05
51 1 7.12299 9.27735 1.64794 2.18949e-05 5.12846e-05 8.31908e-06 5.63799e-05
52 1 10.5672 8.26812 10.9869 7.28372e-06 3.39494e-05 4.39526e-05 5.60128e-05
53 1 8.10931 7.0894 8.99995 -1.74906e-05 5.18082e-05 -1.24092e-05 5.60714e-05
54 1 9.18458 8.34879 6.9902 -2.35162e-05 2.96792e-05 -3.96953e-06 3.80739e-05
55 1 7.63872 6.95505 5.39004 1.97455e-05 4.10241e-05 -3.43793e-05 5.70508e-05
56 1 8.58566 8.28638 3.3113 4.65279e-05 3.50796e-05 1.5573e-05 6.03153e-05
57 1 7.20625 6.82462 1.82437 -3.79385e-05 -6.20804e-06 -6.28719e-05 7.36936e-05
58 1 8.14668 8.12631 11.3365 -4.52289e-05 3.42827e-05 -4.54845e-05 7.2731e-05
59 1 9.57602 6.09864 10.6963 -1.1779e-05 1.80667e-05 2.73358e-05 3.48195e-05
60 1 8.23845 4.57525 9.22024 -8.89927e-05 3.35736e-07 -5.99512e-06 8.9195e-05
61 1 9.16121 5.9348 7.10092 -4.40407e-05 3.85728e-05 4.75482e-05 7.54207e-05
62 1 7.51312 4.57095 5.39145 1.20244e-05 5.89327e-05 4.89586e-05 7.75538e-05
63 1 8.63362 5.8517 3.42446 6.28285e-05 -2.02187e-05 1.33604e-05 6.73403e-05
64 1 8.55554 4.96197 1.02358 1.30917e-06 -1.54481e-05 -4.39269e-05 4.65825e-05
65 1 9.72322 3.60222 10.9421 5.82735e-05 2.08805e-06 -3.25059e-05 6.67592e-05
66 1 7.59554 0.28911 1.5107 2.8745e-05 3.86967e-05 3.52284e-05 5.97055e-05
67 1 5.86538 2.37028 1.86488 3.19674e-05 -5.52382e-05 -6.60033e-05 9.18129e-05
68 1 6.35688 1.28182 11.4763 5.0677e-05 -2.30018e-05 -4.28558e-05 7.02414e-05
69 1 6.66749 0.258139 9.31583 3.96887e-05 -1.08862e-05 -1.72534e-05 4.46249e-05
70 1 1.47419 8.7152 10.7008 4.50709e-05 9.39778e-06 6.42335e-05 7.90294e-05
71 1 1.80323 10.41 7.4544 -0.000114445 4.11471e-05 -9.90598e-05 0.000156855
72 1 0.154676 8.80187 6.52199 -3.16027e-05 1.5251e-05 -1.25284e-05 3.72597e-05
73 1 1.10463 10.1175 3.99161 1.842e-05 -2.43715e-05 -0.000110089 0.000114249
74 1 10.9743 8.70437 2.7741 1.63066e-05 -1.13224e-05 -2.19252e-05 2.95773e-05
75 1 11.3087 11.024 1.9833 8.56594e-05 1.19632e-05 -4.99756e-05 9.9891e-05
76 1 3.07045 10.1207 0.17582 2.52628e-05 -5.69672e-06 -3.18902e-05 4.1081e-05
77 1 0.666268 6.42521 10.3625 6.64747e-06 2.41115e-05 2.07554e-05 3.25013e-05
78 1 1.54778 7.81361 8.15617 -1.17167e-05 4.61005e-05 6.33748e-05 7.92395e-05
79 1 0.0905282 6.37444 6.6315 -3.51974e-05 -1.20552e-05 1.48852e-05 4.00718e-05
80 1 1.02796 7.69427 4.45085 -2.55553e-05 -7.89324e-08 2.28488e-05 3.42804e-05
81 1 11.0978 6.19375 3.03085 -3.3483e-05 -2.95948e-05 -9.37404e-06 4.566e-05
82 1 0.639813 7.41495 1.01444 1.30222e-05 -2.37756e-05 3.25603e-05 4.23678e-05
83 1 2.1415 5.43809 0.440885 -1.85117e-05 -2.00068e-05 -2.91489e-07 2.72588e-05
84 1 1.75109 11.1957 9.94232 5.89968e-06 1.43214e-05 -4.7155e-05 4.96337e-05
85 1 0.693709 4.00074 10.6061 1.86208e-05 1.42104e-05 -1.11957e-05 2.59618e-05
86 1 11.425 3.95891 6.77766 8.7207e-06 2.42009e-06 6.7698e-05 6.83003e-05
87 1 1.07851 5.22352 4.72627 -8.5941e-05 -6.50962e-07 9.93529e-05 0.000131367
88 1 11.0703 5.19531 0.758716 -3.34981e-05 -9.27619e-06 1.65647e-05 3.85041e-05
89 1 2.1549 3.02904 0.730715 -4.58334e-05 2.72684e-05 2.54411e-05 5.9089e-05
90 1 0.0900719 1.68808 10.4286 2.64357e-05 5.05217e-05 -0.000100262 0.000115341
91 1 1.32106 3.0301 8.50567 5.91515e-05 3.03168e-06 -4.16968e-05 7.24342e-05
92 1 1.46561 2.05992 6.29329 -3.17642e-05 -1.18607e-05 3.40736e-05 4.80692e-05
93 1 2.49167 3.23807 4.20133 -1.0767e-05 -2.71074e-05 2.41668e-05 3.78784e-05
94 1 1.0571 4.218 2.48382 -1.10131e-05 -8.6205e-05 -2.4468e-05 9.02844e-05
95 1 1.43384 0.773466 0.483993 4.43938e-05 -3.07433e-05 3.17649e-05 6.26495e-05
96 1 2.90455 1.08221 8.06353 -9.86551e-07 -2.57809e-05 -3.10976e-05 4.04065e-05
97 1 0.482883 11.2411 5.91132 3.46145e-05 -2.49804e-05 2.91033e-05 5.16642e-05
98 1 1.05853 1.72738 2.73247 2.72806e-05 -2.32537e-05 3.78473e-05 5.21285e-05
99 1 0.0307731 2.98836 4.49784 -5.63162e-05 -6.4788e-05 5.23009e-05 0.000100521
100 1 1.57448 5.41535 8.32083 -2.32941e-05 -8.73228e-07 -2.07604e-05 3.12149e-05
101 1 4.94676 0.976097 4.24672 -2.30213e-05 -1.1008e-05 -2.18941e-06 2.56115e-05
102 1 2.41202 0.774632 4.52167 4.30678e-05 -2.44883e-05 -3.11774e-05 5.85367e-05
103 1 5.30924 1.24082 7.60573 -3.38674e-05 7.41083e-06 -2.63542e-06 3.47688e-05
104 1 8.17861 1.28662 7.58835 -2.71604e-05 9.26653e-06 -4.46505e-05 5.30776e-05
105 1 6.32678 11.2522 5.9468 -4.35771e-05 8.54747e-05 3.26895e-06 9.59978e-05
106 1 7.27229 1.34067 3.61273 4.28042e-05 -3.86402e-05 3.23182e-05 6.6104e-05
107 1 5.70718 10.3291 11.6155 8.89145e-05 6.5796e-05 -7.94445e-07 0.000110614
108 1 2.99567 9.466 9.00323 0.000191749 -4.43093e-05 0.000272765 0.000336351
109 1 3.82321 11.0987 6.23621 -1.1008e-05 -1.72863e-05 2.85696e-05 3.51599e-05
110 1 2.57582 9.06043 5.75932 -3.80673e-05 -5.54981e-05 -4.81687e-05 8.2761e-05
111 1 3.85922 10.1426 3.9492 1.91105e-07 -1.13898e-05 -3.67368e-05 3.84624e-05
112 1 2.10814 8.81043 2.31806 7.64685e-05 -8.45745e-06 -3.65023e-05 8.51551e-05
113 1 2.59068 11.1499 2.26614 2.74338e-05 -1.09684e-05 -3.70297e-05 4.73721e-05
114 1 4.46855 8.7533 10.4173 -0.00023261 0.000132068 -0.000301209 0.000402835
115 1 3.06434 6.89193 9.78795 3.03788e-05 -2.13165e-06 -2.70206e-06 3.05732e-05
116 1 4.06138 8.01592 7.53149 -1.59039e-06 -8.75044e-06 -1.13417e-05 1.4413e-05
117 1 2.52937 6.67639 6.15067 -7.3605e-05 -8.01475e-05 1.17949e-05 0.000109455
118 1 3.65349 7.74086 4.07672 -3.97834e-05 -2.98533e-05 2.25307e-05 5.46038e-05
119 1 2.16699 6.36939 2.70088 -4.15233e-05 -2.15325e-05 -4.10605e-06 4.69541e-05
120 1 3.13171 7.63275 0.505391 1.73569e-05 7.63442e-06 -4.47507e-05 4.86022e-05
121 1 4.27128 11.3148 9.84378 -2.67601e-05 2.65277e-05 6.32912e-05 7.36587e-05
122 1 3.9178 1.07549 0.300966 7.17613e-05 2.95764e-05 1.08615e-05 7.83736e-05
123 1 3.55513 2.00743 2.49627 5.12975e-05 7.34237e-05 4.06066e-05 9.83432e-05
124 1 5.17459 3.36777 3.94837 -8.6151e-06 -1.86855e-05 -7.29466e-05 7.5793e-05
125 1 3.90967 2.25247 5.91556 -1.6364e-05 -9.44013e-05 3.53097e-06 9.58741e-05
126 1 3.86097 3.27613 8.10814 2.45704e-05 -2.73351e-05 5.94022e-05 6.98536e-05
127 1 10.2016 9.71437 4.89739 1.57849e-05 -3.92324e-05 -5.8316e-06 4.2689e-05
128 1 2.65833 2.10353 10.2312 0.000115501 -4.13351e-06 2.01356e-05 0.000117316
129 1 3.66295 4.41047 2.17606 -9.53069e-06 4.01367e-05 -1.89392e-05 4.53925e-05
130 1 3.6745 5.32483 4.43737 -2.24684e-05 -4.07585e-05 3.78273e-05 5.99749e-05
131 1 2.50217 4.25341 6.41854 -7.68076e-05 1.57678e-05 1.86914e-05 8.06064e-05
132 1 4.01613 5.66952 7.83577 -9.23028e-06 -2.0184e-06 -1.69797e-05 1.94315e-05
133 1 3.02878 4.46841 10.031 -4.18612e-05 -1.64282e-05 -1.21069e-05 4.65706e-05
134 1 4.57311 5.79582 11.441 1.62298e-05 5.51413e-06 9.58e-05 9.73214e-05
135 1 4.46304 3.40818 0.104656 -4.00602e-05 -6.38404e-06 6.43493e-05 7.60684e-05
136 1 0.0381903 9.67945 8.92134 -3.27408e-05 3.87427e-06 4.20193e-05 5.34097e-05
