ITEM: TIMESTEP
0
ITEM: NUMBER OF ATOMS
143
ITEM: BOX BOUNDS pp pp pp
0.0000000000000000e+00 1.1396901000000000e+01
0.0000000000000000e+00 1.2680864000000000e+01
0.0000000000000000e+00 1.2228524999999999e+01
ITEM: ATOMS id type x y z fx fy fz v_fmag
1 1 2.23543 0.482966 2.10498 -3.63846e-06 5.30328e-06 -3.09781e-06 7.1386e-06
2 1 7.04683 1.74109 7.2638 -4.24245e-05 -1.92493e-05 -2.73286e-05 5.40113e-05
3 1 8.57374 2.97952 9.02319 -2.87708e-05 1.44261e-05 -4.2994e-05 5.37062e-05
4 1 7.62215 1.71837 11.1062 2.03352e-05 2.13905e-05 -1.63236e-05 3.37273e-05
5 1 6.71824 2.97955 0.940981 -1.71876e-05 -4.17452e-06 -4.36284e-05 4.70774e-05
6 1 6.7137 5.62092 1.00887 -4.09722e-05 -2.26291e-06 1.26658e-05 4.29449e-05
7 1 6.37359 4.22514 3.30996 -1.86767e-05 -3.28688e-05 -1.49673e-05 4.06595e-05
8 1 7.99051 2.97961 5.18695 -3.47826e-05 5.28029e-06 3.71915e-05 5.11949e-05
9 1 8.15766 5.43463 5.33965 9.88855e-06 -3.67309e-05 -6.94542e-06 3.86676e-05
10 1 8.60618 5.48205 8.96773 7.25377e-06 4.87659e-05 4.3374e-06 4.94929e-05
11 1 7.6222 4.24066 11.1062 -2.61322e-05 1.00232e-05 4.51175e-05 5.30938e-05
12 1 7.67329 9.3201 1.4071 -3.91601e-06 -1.34438e-05 4.07463e-05 4.30852e-05
13 1 6.77882 6.61419 3.77043 8.92546e-06 -4.22532e-05 3.03323e-05 5.27736e-05
14 1 10.1975 9.32013 4.46088 3.37539e-06 -2.33967e-05 1.932e-05 3.05297e-05
15 1 7.06355 6.75003 7.26433 -2.09437e-05 2.92641e-06 2.45532e-05 3.24047e-05
16 1 7.04681 4.21812 7.2638 1.21654e-05 -3.49951e-06 -4.69992e-05 4.86741e-05
17 1 8.64303 8.03673 8.93139 1.19573e-05 1.10793e-05 3.14887e-05 3.5458e-05
18 1 6.37359 1.73445 3.30997 -3.23962e-05 -7.06663e-05 -2.15139e-05 8.06603e-05
19 1 8.60616 0.477005 8.96773 2.87915e-05 -8.27155e-06 -4.46044e-07 2.99594e-05
20 1 6.11364 8.03468 9.2691 2.26104e-05 2.43621e-05 4.97976e-07 3.32414e-05
21 1 4.77317 6.7064 10.9699 -6.75838e-06 -1.82046e-06 3.51842e-05 3.58736e-05
22 1 4.13007 9.32002 1.03915 7.91004e-05 2.11998e-05 4.67648e-05 9.43041e-05
23 1 8.80367 10.8153 2.87138 -2.22708e-05 -7.14754e-05 3.69199e-06 7.49556e-05
24 1 7.05171 9.32013 3.91742 -4.39023e-06 -6.61311e-05 8.53342e-05 0.000108049
25 1 8.25552 10.6817 5.43685 -2.3764e-05 -2.45916e-05 2.0391e-05 3.98155e-05
26 1 8.56729 2.97991 2.77011 4.50151e-05 -5.8269e-05 1.7781e-06 7.36532e-05
27 1 7.08116 9.32006 7.23858 3.96567e-05 -3.18054e-05 3.01802e-06 5.09249e-05
28 1 4.71573 9.31999 10.8876 -3.8169e-05 9.64876e-06 -8.40918e-06 4.02577e-05
29 1 6.77872 12.0262 3.77027 0.000136767 7.52403e-05 0.000116235 0.00019462
30 1 7.06354 11.8901 7.26434 1.66276e-05 -1.32235e-05 -2.06028e-05 2.95942e-05
31 1 6.19829 10.6482 0.119371 -3.30009e-05 1.39122e-05 -2.3302e-05 4.2727e-05
32 1 9.41587 0.44448 0.441584 1.65045e-05 1.57078e-05 -3.19125e-05 3.92115e-05
33 1 8.15767 0.524604 5.33964 -1.70158e-05 -2.42319e-05 -2.56716e-05 3.91887e-05
34 1 8.64303 10.6032 8.9314 -1.18749e-05 -2.59359e-05 1.01662e-05 3.02826e-05
35 1 4.53474 6.76443 7.50923 7.57055e-06 3.35735e-05 1.26238e-05 3.66586e-05
36 1 6.19835 7.99185 0.119425 4.60115e-06 -1.4488e-05 -2.0324e-05 2.53798e-05
37 1 11.2317 10.5871 2.48116 2.22669e-05 3.41338e-06 2.6421e-05 3.47208e-05
38 1 10.2754 6.71866 4.51622 1.63273e-06 -2.47764e-05 -3.01618e-05 3.90675e-05
39 1 9.61193 4.21186 6.97102 7.51378e-06 8.71576e-06 1.33871e-05 1.76532e-05
40 1 11.1811 5.47895 8.59616 -3.20709e-05 3.03531e-05 -7.66607e-06 4.48176e-05
41 1 10.1815 4.24538 10.629 -4.95144e-05 4.35639e-05 6.572e-05 9.31053e-05
42 1 7.7196 6.7207 10.9784 -8.76171e-06 8.31924e-06 -9.23306e-07 1.21173e-05
43 1 9.5695 8.02454 0.436052 -3.42709e-06 -6.67021e-06 2.19776e-05 2.32218e-05
44 1 8.65891 5.37413 2.78175 2.12422e-06 1.22239e-05 -1.12276e-05 1.67331e-05
45 1 8.80377 7.82528 2.87154 -2.73144e-06 -1.33403e-05 3.96801e-05 4.19516e-05
46 1 11.2167 8.03818 8.57566 2.04483e-05 2.4106e-05 -1.37823e-05 3.44846e-05
47 1 10.2236 6.77415 10.5841 5.59098e-06 -3.50939e-06 9.62535e-06 1.16714e-05
48 1 10.2633 9.31987 10.5834 4.88063e-06 -1.63108e-06 3.35846e-05 3.39766e-05
49 1 10.2236 11.8656 10.5841 -5.74639e-06 4.3849e-05 2.89479e-05 5.28558e-05
50 1 0.36951 8.04103 6.09563 1.77098e-05 -1.46559e-05 1.3542e-05 2.66799e-05
51 1 0.563503 9.31996 0.386295 -7.04712e-06 1.14011e-05 2.58108e-05 2.90834e-05
52 1 9.69072 6.7304 7.0093 4.41402e-05 -3.32769e-05 -4.2805e-06 5.54439e-05
53 1 9.56968 10.6151 0.43602 -2.15659e-05 4.17477e-05 1.41378e-06 4.70102e-05
54 1 9.41594 5.51427 0.441553 -2.21525e-05 3.01794e-05 -2.72028e-05 4.62766e-05
55 1 10.1815 1.71348 10.629 -3.15605e-05 4.03415e-05 -1.20649e-05 5.26219e-05
56 1 10.2754 11.9215 4.5162 2.01427e-06 2.00506e-05 1.33536e-05 2.41745e-05
57 1 9.70517 9.32003 6.98861 4.83044e-08 -4.43429e-05 -3.40312e-06 4.44733e-05
58 1 11.2167 10.6017 8.57565 1.80058e-05 1.90836e-05 3.58061e-05 4.439e-05
59 1 7.78698 9.31998 10.9564 6.40769e-05 1.7216e-06 1.14169e-05 6.51088e-05
60 1 8.65887 0.585655 2.78174 4.04722e-07 -1.98351e-05 1.92467e-05 2.76411e-05
61 1 9.69073 11.9096 7.00929 4.46607e-05 -1.92899e-05 3.48572e-05 5.98474e-05
62 1 9.39576 2.97937 0.454755 -5.47675e-05 3.20479e-05 3.66629e-05 7.32851e-05
63 1 7.71961 11.9192 10.9784 1.2316e-05 3.44275e-05 -7.29797e-06 3.72854e-05
64 1 11.1811 0.480099 8.59615 -8.47465e-06 4.60652e-05 2.42824e-05 5.27585e-05
65 1 11.1011 2.97958 2.45833 1.06618e-05 2.12799e-05 -4.12492e-07 2.38051e-05
66 1 10.1942 1.74552 4.48831 -1.78304e-05 -1.07312e-05 -6.28515e-06 2.1739e-05
67 1 10.1942 4.21382 4.48831 -1.00926e-07 3.19773e-06 -4.43959e-05 4.4511e-05
68 1 9.61195 1.74727 6.97102 -1.13839e-05 -1.95928e-05 3.91305e-05 4.5218e-05
69 1 11.1452 2.97953 8.60754 -1.27579e-05 4.74918e-06 -2.18964e-05 2.57832e-05
70 1 0.37475 0.476248 6.13624 -1.63713e-05 -4.66775e-05 -1.37448e-05 5.13393e-05
71 1 0.369518 10.5991 6.09562 2.6489e-05 1.49087e-05 1.18779e-05 3.26346e-05
72 1 8.25554 7.95846 5.43691 -1.65131e-05 4.62688e-05 -6.24964e-05 7.94939e-05
73 1 5.62942 8.09375 2.45156 3.59124e-05 0.000102525 -2.88919e-05 0.000112409
74 1 0.524342 11.8821 0.379501 -3.03017e-06 2.99822e-05 -8.28757e-06 3.12537e-05
75 1 4.26146 12.0035 1.16979 1.44146e-05 -2.02599e-07 1.65345e-05 2.19366e-05
76 1 2.964 0.455681 5.81546 1.81606e-05 -1.73235e-05 8.7567e-06 2.65818e-05
77 1 3.39756 0.505133 9.41244 -1.28408e-05 9.62476e-07 4.17351e-06 1.35363e-05
78 1 2.24928 2.9796 2.1263 -1.69289e-05 -5.58752e-06 -2.83075e-05 3.34533e-05
79 1 1.33136 1.71916 4.14248 4.39758e-06 4.62521e-06 1.47927e-05 1.61107e-05
80 1 1.8957 11.8815 7.72727 1.89283e-05 4.13655e-07 -1.76354e-06 1.90148e-05
81 1 2.92353 2.97961 5.82571 -6.37391e-06 1.30865e-05 -1.62382e-05 2.18074e-05
82 1 3.49523 2.9796 9.55127 -1.62961e-05 -1.37171e-05 -2.57144e-05 3.33909e-05
83 1 2.72552 0.529044 11.8891 -1.86593e-05 -1.73992e-06 -3.37934e-06 1.90425e-05
84 1 0.49522 4.23227 0.39596 -5.46625e-06 1.49235e-05 9.54262e-06 1.85378e-05
85 1 2.23545 5.47623 2.105 4.33772e-06 1.62015e-05 -8.16832e-08 1.67723e-05
86 1 1.33136 4.24005 4.14249 2.11865e-05 -3.32837e-05 3.73791e-06 3.96314e-05
87 1 2.96399 5.50354 5.81548 1.80658e-05 7.1785e-07 -3.66959e-05 4.09082e-05
88 1 1.90937 1.73483 7.79686 -2.99108e-05 -1.98199e-06 -1.43945e-05 3.32534e-05
89 1 1.90937 4.22436 7.79686 1.71479e-05 -7.26306e-06 6.78394e-06 1.98198e-05
90 1 11.1373 0.436517 2.46206 -2.03112e-05 5.19106e-06 -1.2414e-05 2.43639e-05
91 1 1.90068 9.32002 7.69458 -7.00408e-06 1.78422e-05 -1.43711e-05 2.39569e-05
92 1 1.4239 11.8725 4.14507 -2.48854e-05 -4.7578e-06 7.30969e-06 2.63695e-05
93 1 1.29759 11.9068 10.1961 7.33465e-06 2.98488e-05 3.45841e-05 4.62688e-05
94 1 0.495191 1.72683 0.395945 -9.81818e-06 -1.15611e-05 2.93936e-05 3.30763e-05
95 1 0.350433 2.97962 6.15028 1.50246e-05 4.02999e-06 -1.04628e-05 1.8747e-05
96 1 1.28885 1.74915 10.2476 1.95654e-05 -1.65415e-05 4.60993e-06 2.60322e-05
97 1 11.1373 5.52264 2.46208 2.63682e-05 1.55522e-05 -4.17442e-05 5.17661e-05
98 1 3.35121 10.6232 9.32974 -2.45354e-05 5.85643e-06 1.18356e-05 2.78633e-05
99 1 0.374738 5.483 6.13624 -4.98095e-06 -5.74364e-06 -7.85713e-06 1.09332e-05
100 1 11.2317 8.05297 2.48115 -2.51071e-06 1.31744e-05 1.27944e-05 1.85355e-05
101 1 2.99776 8.03687 5.78895 -1.75803e-05 -1.22563e-05 4.05542e-05 4.58686e-05
102 1 1.2976 6.7331 10.1961 1.68574e-05 1.25816e-05 1.84325e-05 2.79683e-05
103 1 2.29672 10.6199 2.11121 -5.66469e-06 -3.689e-05 -2.10843e-06 3.73819e-05
104 1 1.38816 9.32004 4.14539 2.23641e-05 -4.3053e-06 -3.27457e-05 3.9887e-05
105 1 2.99776 10.6032 5.78895 1.39721e-05 2.35973e-05 4.26706e-05 5.07231e-05
106 1 1.28889 4.20996 10.2476 -1.82447e-05 3.28034e-06 -2.31931e-05 2.96909e-05
107 1 3.99568 6.71704 3.75693 4.05699e-05 -2.30518e-05 -2.46848e-05 5.27886e-05
108 1 3.39757 5.45406 9.41246 4.43278e-07 -1.14562e-05 -3.41625e-05 3.60349e-05
109 1 0.52434 6.75782 0.379509 1.33275e-05 4.32039e-05 -1.80772e-05 4.86928e-05
110 1 6.07124 0.482307 9.25792 -3.6473e-06 2.0068e-06 -2.0661e-05 2.10762e-05
111 1 4.48634 1.74682 1.46126 5.36905e-05 5.9246e-06 -1.59266e-05 5.63154e-05
112 1 3.874 1.73122 3.83112 -1.79459e-07 -2.95251e-05 -1.27498e-05 3.21609e-05
113 1 5.49261 2.97968 5.46108 -8.52676e-06 -4.16885e-05 2.45975e-05 4.91495e-05
114 1 4.50874 1.73626 7.51884 -4.46265e-05 -4.12197e-06 -2.38253e-05 5.07559e-05
115 1 6.05429 2.97959 9.3119 -6.9724e-06 -1.60858e-07 -3.44991e-05 3.5197e-05
116 1 5.51905 0.497234 5.5339 1.35815e-05 -3.99651e-05 -5.79877e-06 4.26062e-05
117 1 5.05691 1.70764 11.2999 1.38852e-05 5.91619e-05 2.20447e-05 6.46445e-05
118 1 3.874 4.22807 3.83112 -1.08711e-05 3.40759e-06 -3.16355e-05 3.36244e-05
119 1 5.51904 5.46212 5.5339 3.69464e-05 -1.94618e-05 1.27546e-06 4.17783e-05
120 1 4.50872 4.22299 7.51883 -1.52261e-05 -2.20766e-05 1.19744e-05 2.937e-05
121 1 6.07125 5.47687 9.25791 -1.49487e-06 2.91263e-05 5.73999e-06 2.97242e-05
122 1 5.05695 4.25151 11.2999 2.99051e-06 -5.0494e-05 -4.44566e-07 5.05844e-05
123 1 4.26155 6.6365 1.16985 -8.71096e-06 1.3287e-05 -1.42368e-05 2.13333e-05
124 1 4.48636 4.21223 1.46126 7.5916e-06 3.48268e-05 6.61936e-06 3.62541e-05
125 1 2.83904 2.97952 11.9786 5.87661e-06 7.14918e-05 -1.92199e-05 7.42632e-05
126 1 6.71366 0.338135 1.00903 -3.06932e-05 1.13037e-05 -8.17471e-05 8.80479e-05
127 1 4.77312 11.9336 10.9699 1.44105e-05 -2.16358e-05 -5.7689e-06 2.6628e-05
128 1 2.29678 8.02013 2.11123 -6.87726e-06 -2.76268e-06 1.09879e-06 7.49242e-06
129 1 1.4239 6.76753 4.14508 2.51208e-05 -8.89756e-06 8.63553e-06 2.80142e-05
130 1 5.54244 8.03451 5.48091 -1.31949e-05 -3.07349e-05 1.50007e-05 3.66574e-05
131 1 1.8957 6.75859 7.72728 -2.24274e-05 1.81098e-05 6.76207e-06 2.96087e-05
132 1 3.35121 8.01683 9.32975 -3.12476e-06 -1.16058e-05 6.7867e-06 1.38028e-05
133 1 2.72558 5.43003 11.8891 -1.64709e-05 3.89078e-05 -2.72359e-06 4.23382e-05
134 1 2.67954 10.6578 11.8331 -2.14522e-05 2.99316e-05 -7.65302e-06 3.7612e-05
135 1 5.62946 10.5464 2.45155 -0.000146192 -0.000141142 -0.000205657 0.000289116
136 1 5.54245 10.6057 5.48087 2.90029e-06 -3.18246e-06 1.02188e-05 1.10889e-05
137 1 4.55246 9.32005 7.50391 -8.64949e-06 7.18394e-06 6.18047e-06 1.28305e-05
138 1 6.11363 10.6054 9.2691 5.05539e-06 -1.1901e-05 4.93888e-05 5.10533e-05
139 1 2.67957 7.98208 11.8332 -3.93298e-05 -3.05792e-07 -3.18955e-05 5.06384e-05
140 1 3.99568 11.9231 3.75688 -1.14855e-05 -1.56769e-05 8.22956e-06 2.11046e-05
141 1 4.53473 11.8757 7.50922 4.42031e-05 -2.56105e-05 -1.47363e-05 5.31692e-05
142 1 3.90384 9.32009 3.78079 2.87676e-05 -2.76935e-05 -2.711e-05 4.82645e-05
143 1 1.3213 9.31996 10.1848 5.55277e-05 2.63053e-05 2.43301e-05 6.60852e-05
