ITEM: TIMESTEP
0
ITEM: NUMBER OF ATOMS
156
ITEM: BOX BOUNDS pp pp pp
0.0000000000000000e+00 1.1396901000000000e+01
0.0000000000000000e+00 1.2680864000000000e+01
0.0000000000000000e+00 1.2228524999999999e+01
ITEM: ATOMS id type x y z fx fy fz v_fmag
1 1 2.35543 0.399708 3.97394 3.72907e-05 -1.12066e-05 -3.42289e-05 5.1844e-05
2 1 9.5126 2.28235 0.325231 -8.16755e-05 -0.000113086 -8.25067e-06 0.00013974
3 1 9.16522 5.34209 1.05224 1.93718e-05 1.6794e-05 1.71258e-05 3.08317e-05
4 1 9.62899 3.98616 4.24556 3.12415e-06 -3.81475e-05 1.24043e-05 4.0235e-05
5 1 9.5319 6.22787 5.41119 -9.90318e-06 1.86582e-05 -5.00064e-05 5.42848e-05
6 1 7.67966 4.4407 8.91114 9.02915e-05 2.46276e-05 2.69016e-05 9.73795e-05
7 1 9.00615 5.57971 10.7131 3.08953e-05 -2.03872e-05 -3.36361e-05 5.00155e-05
8 1 7.53385 6.98787 0.108484 -4.18774e-05 -1.61228e-05 -1.71886e-06 4.49068e-05
9 1 8.89567 7.61009 2.15534 -7.45222e-06 2.75453e-05 2.02343e-06 2.86072e-05
10 1 8.05147 5.61243 3.32612 -3.68873e-05 -1.78004e-05 1.25273e-05 4.28306e-05
11 1 7.92457 7.85926 4.46693 2.48546e-05 2.69396e-05 -1.05419e-05 3.81395e-05
12 1 8.51377 6.49818 7.69003 1.40296e-05 3.9691e-05 5.78271e-05 7.15275e-05
13 1 9.84271 7.49771 9.57933 4.63212e-05 -2.17533e-05 2.45253e-05 5.67481e-05
14 1 7.22676 9.25593 1.20084 -8.67487e-06 -1.43505e-06 -1.05373e-05 1.3724e-05
15 1 7.1016 11.5059 2.29485 -6.73398e-05 -4.41441e-05 6.553e-05 0.000103815
16 1 6.31813 9.52842 3.51917 -4.02773e-05 -3.37553e-05 5.28057e-05 7.44992e-05
17 1 6.88749 2.35355 10.0733 2.3161e-05 -1.03865e-05 -1.89603e-05 3.16828e-05
18 1 5.50774 1.73767 7.99515 -5.43176e-05 4.24719e-05 4.74429e-05 8.36964e-05
19 1 8.71277 4.18147 6.58784 -2.57574e-05 -1.02477e-06 -1.06314e-05 2.78841e-05
20 1 8.68732 1.96311 5.3849 -1.39858e-05 2.12862e-05 -1.14733e-06 2.54955e-05
21 1 3.97671 9.0481 3.83882 1.15032e-05 -5.29067e-05 1.04865e-06 5.4153e-05
22 1 5.37643 9.78228 5.80783 7.296e-06 -1.8901e-05 1.69247e-05 2.63993e-05
23 1 4.46833 7.75537 7.00053 5.48043e-05 -5.22729e-06 4.39789e-05 7.04626e-05
24 1 5.78893 8.66205 8.90173 -2.24029e-05 -3.15906e-05 1.34816e-05 4.10074e-05
25 1 5.87182 8.65626 11.397 -4.19252e-05 -6.49174e-05 3.02113e-05 8.29742e-05
26 1 3.07184 10.6573 0.572777 1.24418e-05 6.81966e-06 3.15612e-05 3.46037e-05
27 1 2.47199 10.6036 2.98166 -6.14758e-05 5.15302e-06 -1.8574e-05 6.44269e-05
28 1 7.81282 10.2064 5.51698 4.04936e-05 1.108e-05 -4.20353e-05 5.94093e-05
29 1 3.85671 11.437 4.90178 -2.50244e-05 -4.10521e-05 8.16674e-06 4.87667e-05
30 1 4.79882 12.365 9.19747 -1.08512e-05 5.32511e-05 -7.90496e-06 5.49174e-05
31 1 4.16221 10.3371 10.4684 -9.79667e-05 -2.31593e-06 -8.55807e-06 9.83671e-05
32 1 9.72757 1.67334 3.16253 -1.63721e-05 -1.45473e-05 -8.64937e-06 2.35474e-05
33 1 7.94095 2.13009 7.77438 -4.06051e-05 1.68369e-05 3.73457e-05 5.76797e-05
34 1 8.57908 0.644004 10.9868 -5.14677e-05 1.33858e-05 -1.54678e-05 5.53837e-05
35 1 7.99436 3.79429 11.7622 -3.1049e-05 4.05378e-05 -2.39344e-05 5.63933e-05
36 1 10.7447 3.6681 1.97117 7.04344e-05 -6.47557e-06 -2.60737e-05 7.53842e-05
37 1 4.2698 10.2554 7.98932 4.3707e-05 -5.06089e-06 -8.62141e-06 4.48358e-05
38 1 4.70087 11.2592 2.5697 1.2496e-05 7.85178e-07 -1.1316e-05 1.68766e-05
39 1 6.92887 8.13448 6.73798 8.65787e-06 -9.93196e-06 1.36962e-05 1.90049e-05
40 1 8.31058 9.00793 11.1165 -1.86921e-05 3.15907e-05 2.14138e-05 4.24961e-05
41 1 10.5218 5.98828 3.09878 3.63059e-05 7.35262e-06 1.70398e-06 3.70821e-05
42 1 10.3826 8.22694 4.24609 7.93507e-06 -3.39303e-06 -3.56645e-06 9.33797e-06
43 1 10.9558 6.94443 7.4419 4.74539e-05 4.59064e-05 2.36424e-07 6.60252e-05
44 1 9.64358 9.61477 0.934803 -2.48958e-05 1.3292e-05 6.89275e-06 2.90515e-05
45 1 11.2274 0.0303698 4.1634 -1.49306e-06 -4.84872e-05 -1.26523e-05 5.01331e-05
46 1 8.75479 9.83706 3.28164 -1.24815e-06 7.90232e-05 -2.30899e-05 8.23369e-05
47 1 10.2567 10.6451 5.2633 -1.20132e-06 6.26552e-07 -5.91177e-05 5.91332e-05
48 1 9.37214 8.57218 6.48099 2.52448e-05 -4.44535e-06 -4.00099e-05 4.75169e-05
49 1 10.7154 9.47681 8.43317 -4.90767e-05 -4.54084e-05 -1.6113e-05 6.87756e-05
50 1 10.7363 9.44681 10.8958 -4.765e-05 -1.52393e-05 1.40407e-05 5.19606e-05
51 1 7.90413 11.2392 12.1551 -6.17844e-05 6.22957e-05 -1.54825e-05 8.90942e-05
52 1 10.9218 0.791718 1.21867 -5.21852e-06 5.98528e-05 -6.19994e-06 6.03989e-05
53 1 8.71589 12.2862 4.2726 3.94079e-05 -1.38551e-05 1.20378e-05 4.34725e-05
54 1 10.1763 0.365952 6.33682 8.20749e-06 -3.04361e-05 -3.44575e-06 3.17111e-05
55 1 9.20089 11.0246 7.46293 2.9045e-05 -9.6416e-06 -4.1433e-05 5.15099e-05
56 1 9.98399 7.38953 12.0919 2.25244e-05 2.31119e-05 1.25103e-05 3.46124e-05
57 1 0.0600616 5.92477 10.519 3.89578e-05 -8.59023e-06 -1.2807e-05 4.1899e-05
58 1 10.1264 4.86287 8.63529 -5.74059e-06 -6.54729e-05 3.50538e-05 7.44877e-05
59 1 0.705968 4.37358 4.03118 -1.303e-05 -5.86286e-05 6.80502e-06 6.04434e-05
60 1 5.51163 10.9526 0.251227 -5.19184e-05 -1.65074e-05 7.84662e-05 9.55247e-05
61 1 8.55039 0.38044 1.36552 -0.000150452 0.000313999 -8.47933e-05 0.000358359
62 1 6.2815 11.8598 4.57976 4.90887e-05 7.78648e-05 -2.34291e-05 9.49819e-05
63 1 7.73277 12.621 6.52789 7.18229e-05 0.000102509 1.1908e-06 0.000125172
64 1 6.749 10.6123 7.70613 -6.14851e-06 -1.18527e-05 -8.22074e-06 1.56803e-05
65 1 7.23117 0.0541987 8.92519 -5.11886e-05 3.636e-05 2.25625e-05 6.67187e-05
66 1 6.57682 10.6698 10.1423 -2.22828e-05 4.2179e-05 -5.8898e-05 7.57929e-05
67 1 8.26009 9.03756 8.64358 3.11452e-05 1.34486e-05 -1.26697e-05 3.62134e-05
68 1 0.881485 2.0077 2.92334 8.93725e-05 2.44184e-05 -5.18604e-05 0.000106175
69 1 10.3016 11.6893 11.9684 -7.64379e-05 6.95011e-06 -3.41569e-05 8.40104e-05
70 1 0.995971 2.30269 0.405131 1.17043e-07 -4.78356e-05 3.03677e-05 5.66609e-05
71 1 11.1728 2.37351 5.18105 3.25658e-05 1.43035e-05 -3.92113e-05 5.294e-05
72 1 11.1466 4.60498 6.3508 2.46644e-05 5.85713e-06 -4.80231e-05 5.43034e-05
73 1 9.32313 2.79349 9.86957 1.17965e-05 6.24636e-05 1.1297e-05 6.45638e-05
74 1 10.6737 4.00274 11.6421 6.79758e-05 -3.88233e-05 -2.0698e-05 8.09714e-05
75 1 0.213173 5.78288 0.826406 4.39238e-05 -1.97773e-05 7.20802e-05 8.66948e-05
76 1 10.3566 2.55452 7.54521 -8.71507e-06 -1.41992e-05 1.9575e-05 2.5705e-05
77 1 4.77976 8.94972 1.47906 -2.83734e-05 -2.41131e-05 -3.02598e-05 4.79807e-05
78 1 7.36232 7.10335 9.81692 4.64407e-05 3.73481e-06 -2.98792e-07 4.65916e-05
79 1 6.06143 6.09567 7.94772 -1.62212e-05 9.43994e-06 -4.37273e-06 1.92707e-05
80 1 0.0262139 11.5487 9.75433 -7.47207e-05 2.5522e-05 -1.5127e-05 8.03952e-05
81 1 4.76974 0.846016 3.66378 -1.14756e-06 -3.40988e-05 -3.26293e-05 4.72093e-05
82 1 2.77184 11.8588 7.08431 -5.2561e-05 3.74146e-05 4.51984e-06 6.46757e-05
83 1 3.77265 12.6654 11.5236 -2.86555e-06 -3.94998e-05 2.27754e-05 4.56855e-05
84 1 5.35047 0.596821 1.29136 3.21509e-07 -0.000141366 6.59764e-05 0.000156005
85 1 5.70683 2.90371 2.37587 -5.13915e-05 1.06589e-06 -1.54619e-06 5.14258e-05
86 1 3.78274 1.17204 5.91726 -3.25413e-05 -4.67654e-06 6.06158e-05 6.89571e-05
87 1 3.83691 3.39565 7.06954 3.6882e-06 2.04858e-05 -1.21089e-05 2.40811e-05
88 1 0.653821 0.929585 8.53188 -4.56702e-05 1.97541e-05 4.50658e-05 6.71336e-05
89 1 2.04195 1.62012 10.5324 -3.09793e-05 -6.74111e-07 -5.38093e-05 6.20936e-05
90 1 3.38455 2.45111 0.279112 5.16755e-05 5.17015e-06 3.68931e-05 6.37039e-05
91 1 4.18124 4.58912 1.51294 -1.57022e-05 1.14781e-05 -2.7915e-05 3.40228e-05
92 1 4.72268 3.18666 4.72994 -1.15662e-05 3.52825e-05 3.77967e-05 5.29832e-05
93 1 4.6718 5.41412 5.90893 1.67831e-05 -2.17148e-05 2.25964e-05 3.555e-05
94 1 2.79013 3.66654 9.32896 -3.31205e-05 -1.77205e-05 -1.377e-05 4.00074e-05
95 1 1.2767 0.777101 6.15647 0.000100512 -4.01255e-05 5.90577e-05 0.00012329
96 1 9.96065 11.5888 2.2938 0.000131445 -0.000121288 3.71835e-05 0.000182677
97 1 1.00789 7.8527 11.8684 -3.95327e-05 -4.17311e-05 9.83194e-06 5.8318e-05
98 1 0.877946 7.91918 9.38067 -7.78142e-06 -7.05112e-05 -6.83233e-07 7.09425e-05
99 1 0.261213 11.4629 7.28886 -1.87624e-05 7.21287e-06 -1.51455e-05 2.51682e-05
100 1 11.0006 1.17827 10.838 -8.36833e-06 -1.84463e-05 -5.91132e-05 6.24874e-05
101 1 2.99725 0.377544 1.58109 9.88121e-05 3.07632e-05 2.45133e-05 0.000106354
102 1 3.293 2.52879 2.74779 1.78288e-05 -1.48594e-05 -8.50607e-06 2.47189e-05
103 1 1.38562 2.98856 7.31067 -9.67021e-06 -4.53419e-05 2.30792e-05 5.17885e-05
104 1 0.36395 3.23577 9.5853 5.28394e-05 -2.81845e-06 3.60081e-05 6.40041e-05
105 1 1.78435 4.16489 1.77957 -2.83237e-05 1.27756e-05 -3.55942e-05 4.72482e-05
106 1 3.98668 4.74891 11.2134 0.000124912 3.90546e-05 -1.2005e-05 0.000131424
107 1 2.2525 2.77649 4.98872 -7.16374e-05 -8.01991e-06 2.63982e-05 7.67665e-05
108 1 1.68863 4.26241 11.4849 2.7657e-05 -1.52528e-06 3.11008e-05 4.16473e-05
109 1 1.57164 6.42752 2.88377 2.69123e-05 2.76802e-06 7.7772e-06 2.81499e-05
110 1 0.594537 6.62578 5.19499 -1.54009e-06 3.74162e-05 -1.65564e-05 4.09445e-05
111 1 1.16132 5.31235 8.3908 7.14355e-06 2.43864e-05 6.54527e-05 7.02124e-05
112 1 2.43859 6.326 10.3093 -1.86399e-06 4.93862e-05 -7.92999e-07 4.94277e-05
113 1 11.3338 8.02175 1.91921 -5.05539e-05 -5.24378e-05 -1.10828e-05 7.36766e-05
114 1 0.421645 9.0117 6.25883 9.74945e-06 1.32641e-05 -3.21492e-05 3.61187e-05
115 1 2.20391 5.02153 6.13839 -2.66854e-06 -2.5973e-05 -3.20148e-05 4.13119e-05
116 1 2.62118 6.23688 0.586467 -3.76956e-05 1.58986e-06 3.66677e-05 5.26118e-05
117 1 3.99881 6.86561 2.64341 -2.9132e-05 -1.62571e-05 8.4391e-06 3.4412e-05
118 1 3.16031 4.81776 3.82803 -1.12101e-06 -4.33953e-05 5.39631e-06 4.37439e-05
119 1 7.12726 1.84937 0.50814 0.000234904 -0.000169429 0.000115155 0.000311684
120 1 8.21579 3.32218 2.19459 3.82041e-05 -4.78425e-05 5.89343e-05 8.49806e-05
121 1 6.24928 1.55444 5.61326 6.70906e-05 -1.64038e-05 4.63954e-06 6.92226e-05
122 1 6.28789 3.77462 6.82444 -5.08552e-05 4.65246e-05 2.91061e-05 7.48195e-05
123 1 3.06624 1.3521 8.26042 -6.0487e-06 1.90714e-05 -2.48046e-05 3.1868e-05
124 1 4.45684 1.98825 10.2671 5.74422e-05 3.46082e-05 -6.06043e-05 9.03892e-05
125 1 5.54092 3.27189 12.0565 -0.000140938 0.000144775 -8.5159e-05 0.000219261
126 1 6.16568 0.251549 11.1802 -1.13073e-05 2.98216e-05 -9.88042e-06 3.33887e-05
127 1 6.65262 4.98716 1.2902 -9.21255e-07 1.74799e-05 -1.08406e-05 2.05892e-05
128 1 7.10403 5.80738 5.64942 -3.76166e-05 -4.10147e-05 4.52128e-06 5.58359e-05
129 1 5.23218 4.04486 9.12039 1.73368e-05 -2.1527e-05 -3.89445e-05 4.77562e-05
130 1 6.40407 5.23914 10.9403 3.31395e-06 -2.3736e-05 4.08694e-05 4.73781e-05
131 1 5.05679 6.6429 0.36063 1.67108e-05 5.71966e-05 -1.8882e-05 6.25078e-05
132 1 6.43662 7.26445 2.40253 5.3782e-07 -3.39919e-05 1.11171e-05 3.57677e-05
133 1 5.5966 5.21214 3.55841 -8.65653e-06 -1.483e-05 1.36579e-05 2.19409e-05
134 1 5.52242 7.4389 4.73205 -1.97308e-05 8.22402e-07 5.04259e-05 5.41549e-05
135 1 7.16067 3.56915 4.44829 2.60391e-05 2.59185e-05 1.14843e-05 3.84927e-05
136 1 9.65526 0.481077 8.74128 -3.4637e-05 -1.45592e-05 -3.73572e-05 5.29835e-05
137 1 5.27641 12.2307 6.80718 4.13752e-05 -4.55988e-05 4.05748e-06 6.17059e-05
138 1 1.75212 9.94651 10.7331 -4.43108e-05 3.83993e-05 -2.68967e-05 6.45088e-05
139 1 3.08932 7.02315 4.99801 6.93985e-06 -1.57687e-05 1.44228e-05 2.24684e-05
140 1 3.60573 5.72158 8.17289 4.26932e-05 1.5454e-05 2.70537e-05 5.28529e-05
141 1 4.8476 6.75553 10.0682 -3.33242e-05 9.31767e-05 -4.82347e-05 0.000110086
142 1 0.650329 10.1199 0.740142 -5.65334e-05 1.3848e-05 -3.17801e-05 6.63156e-05
143 1 2.35326 8.50689 1.70317 -6.03172e-06 1.73835e-05 2.27128e-05 2.92308e-05
144 1 1.5429 8.58732 4.08978 5.3003e-06 -2.77849e-05 2.41236e-05 3.71758e-05
145 1 2.90124 9.40929 6.06443 3.86046e-05 1.30132e-05 -3.0688e-05 5.10041e-05
146 1 7.20307 1.23424 3.2713 1.17144e-05 3.25954e-05 4.74492e-05 5.87462e-05
147 1 2.00372 7.37522 7.22472 -5.51716e-05 1.24535e-05 4.36905e-06 5.67282e-05
148 1 3.42945 8.30352 11.6612 3.09918e-05 5.80074e-06 7.22856e-06 3.2348e-05
149 1 1.33449 12.3286 11.8882 -3.4525e-05 -3.60611e-05 -4.6057e-05 6.79236e-05
150 1 0.984589 12.0772 2.1395 5.36537e-05 1.18286e-05 -6.69492e-05 8.66074e-05
151 1 0.0350691 10.104 3.18581 -5.49779e-06 1.82961e-05 -2.68585e-05 3.29599e-05
152 1 1.35689 11.0576 5.12069 8.49586e-05 -5.64449e-05 -1.80314e-05 0.000103581
153 1 1.77541 9.90279 8.24127 3.76889e-06 1.62571e-05 -3.82614e-05 4.17424e-05
154 1 2.40659 11.9906 9.52958 -3.99937e-05 -7.29743e-05 -5.65904e-05 0.000100634
155 1 3.30687 8.32575 9.1648 3.42245e-06 -1.71683e-05 7.8688e-05 8.06118e-05
156 1 9.00625 11.065 9.89726 -5.43774e-05 3.45417e-05 -3.99515e-05 7.58034e-05
