ITEM: TIMESTEP
0
ITEM: NUMBER OF ATOMS
156
ITEM: BOX BOUNDS pp pp pp
0.0000000000000000e+00 1.1400361000000000e+01
0.0000000000000000e+00 1.2098903999999999e+01
0.0000000000000000e+00 1.2816801000000000e+01
ITEM: ATOMS id type x y z fx fy fz v_fmag
1 1 10.9447 1.31707 1.58588 -4.11865e-06 -1.15353e-05 1.2678e-05 1.76283e-05
2 1 6.23503 5.06059 8.29811 -8.54477e-06 5.51159e-06 -1.57782e-05 1.87708e-05
3 1 3.91591 4.14221 10.9905 2.74738e-06 1.44469e-05 4.63454e-05 4.86226e-05
4 1 7.98629 4.85149 12.3292 3.67008e-05 5.66848e-06 -9.06654e-06 3.82267e-05
5 1 6.91283 6.09091 1.522 2.43236e-05 1.20399e-05 7.277e-07 2.71501e-05
6 1 4.46727 5.25744 4.41139 -9.99121e-06 2.13366e-05 5.90115e-05 6.35408e-05
7 1 6.08724 6.2084 6.04081 5.00342e-05 3.10245e-06 -3.76742e-05 6.27087e-05
8 1 5.32817 6.18053 10.315 -3.94674e-06 -7.95505e-06 -2.41894e-05 2.57679e-05
9 1 9.33968 6.90748 11.5418 8.12852e-06 1.34365e-05 -1.88105e-05 2.4504e-05
10 1 8.33561 8.05224 0.737516 -1.0634e-05 -3.65186e-05 -2.24206e-05 4.41517e-05
11 1 5.94407 7.21872 3.61623 2.23938e-05 2.39788e-05 2.13196e-05 3.91279e-05
12 1 7.5141 8.21162 5.2844 5.10685e-05 -8.13015e-07 -1.25138e-06 5.10903e-05
13 1 7.6971 7.14059 7.66604 -5.01002e-06 -8.87177e-06 -3.73012e-05 3.86677e-05
14 1 9.31317 8.06952 9.29356 -5.67201e-06 -2.04746e-05 -4.34092e-05 4.83295e-05
15 1 8.51569 9.22783 11.357 1.57793e-05 1.14646e-05 -6.17274e-06 2.04579e-05
16 1 7.81586 10.4323 0.623207 -1.26314e-05 -3.27617e-06 3.22151e-05 3.47577e-05
17 1 4.62352 4.14076 6.66195 -1.06591e-05 -2.01795e-05 2.72491e-05 3.55435e-05
18 1 5.60894 4.22803 2.6072 -0.000133956 -0.00012055 -0.00014188 0.000229361
19 1 5.21979 2.26787 12.0009 5.14859e-05 -5.68367e-05 -6.99803e-05 0.000103819
20 1 6.61196 3.16742 0.710244 -0.000150807 -3.45681e-05 -1.90011e-05 0.00015588
21 1 5.42053 10.6401 1.06741 2.2016e-05 8.15221e-06 5.85872e-05 6.3116e-05
22 1 4.85273 9.37339 3.16839 3.39655e-06 3.34504e-05 -8.27564e-06 3.46259e-05
23 1 6.38133 10.3277 4.71678 5.40476e-05 -9.04926e-06 -4.57425e-06 5.49905e-05
24 1 4.22232 9.64144 7.83131 3.41441e-05 2.30587e-05 1.64167e-05 4.43513e-05
25 1 5.84759 10.5683 9.49984 1.699e-05 -1.19507e-05 2.25044e-05 3.06256e-05
26 1 3.67785 9.6778 12.2188 4.90693e-05 -2.00188e-05 2.71371e-05 5.95397e-05
27 1 4.77581 11.8091 3.16504 -2.02841e-05 3.67176e-05 1.85092e-06 4.19887e-05
28 1 7.31048 9.18269 2.73677 4.40187e-05 5.5617e-06 2.12241e-05 4.91838e-05
29 1 5.51724 11.4531 6.69352 2.04573e-05 1.37968e-05 -1.56959e-05 2.9244e-05
30 1 4.67497 0.450941 8.62178 4.78608e-05 -3.45379e-05 -1.84308e-05 6.18322e-05
31 1 5.05361 11.7543 11.5916 6.2521e-06 -1.33333e-05 4.15334e-05 4.40669e-05
32 1 6.08428 1.75552 2.56799 2.32259e-05 6.44882e-05 -6.73692e-06 6.88735e-05
33 1 5.41179 2.95061 4.65101 -6.58231e-05 -4.77406e-05 8.02894e-05 0.000114273
34 1 8.12884 1.63945 6.40675 -3.73734e-05 1.86859e-05 -5.61968e-07 4.17882e-05
35 1 7.32039 2.80303 8.49971 -3.57684e-05 -6.78536e-06 -1.39962e-05 3.9004e-05
36 1 6.33628 1.35358 10.229 -3.66101e-05 -3.25132e-05 2.21628e-05 5.37457e-05
37 1 6.48125 0.686345 4.79885 -2.99203e-05 -5.86334e-06 1.30535e-05 3.31662e-05
38 1 4.36813 7.30077 12.3524 -1.78918e-06 -3.93223e-06 -1.84349e-05 1.89343e-05
39 1 8.83228 10.1311 4.29537 7.11286e-05 9.92038e-06 -6.22845e-06 7.20867e-05
40 1 8.2795 10.3276 9.05537 2.00594e-05 -2.91983e-05 -1.92281e-05 4.03068e-05
41 1 8.61734 6.03143 5.66738 -1.22434e-05 -3.82092e-05 -2.60932e-05 4.78612e-05
42 1 7.80795 5.96816 9.9298 -2.56608e-05 1.07836e-05 -1.42087e-05 3.12514e-05
43 1 8.43452 7.05649 3.20739 4.62177e-05 -4.02064e-05 -2.24961e-05 6.52587e-05
44 1 9.98532 8.01069 4.88283 -7.93681e-06 -4.85477e-05 -2.16806e-05 5.37579e-05
45 1 10.1798 6.94029 7.25655 -2.88917e-05 -6.4419e-05 3.47995e-07 7.06021e-05
46 1 10.9592 8.98817 10.9401 -2.13236e-05 1.16746e-05 -2.76321e-05 3.68039e-05
47 1 10.2225 10.1702 0.19783 8.19314e-06 2.35583e-05 -3.79124e-05 4.53814e-05
48 1 9.81541 8.97556 2.33881 2.74794e-05 4.99943e-05 1.37321e-05 5.86781e-05
49 1 9.1072 9.17274 6.95547 -1.3628e-05 6.79494e-06 -1.71021e-05 2.28992e-05
50 1 10.7208 10.1155 8.63721 3.55175e-05 -1.85647e-05 -5.50946e-05 6.8129e-05
51 1 9.92302 11.2538 10.7236 -1.0442e-05 2.59685e-05 -5.79892e-05 6.43906e-05
52 1 9.5866 11.4262 2.25587 7.79913e-06 -2.96633e-06 3.26271e-05 3.36772e-05
53 1 10.3733 11.0461 5.87303 6.44566e-05 1.77116e-05 3.59298e-05 7.58901e-05
54 1 6.7397 0.613318 0.399967 -2.04462e-05 -8.36873e-06 3.04398e-05 3.76121e-05
55 1 11.325 0.262301 3.91178 -1.45275e-05 -2.42499e-05 2.6245e-05 3.85734e-05
56 1 7.09192 5.12443 4.12139 5.68385e-05 4.73062e-05 -4.54126e-05 8.67802e-05
57 1 9.43916 5.91442 1.15528 9.88427e-06 -2.4667e-05 7.81501e-06 2.7699e-05
58 1 6.448 3.92407 10.6326 -5.62848e-05 -1.71746e-05 -1.62288e-05 6.10436e-05
59 1 8.68998 4.85109 7.8615 -4.50514e-05 -1.19267e-05 3.25252e-05 5.6831e-05
60 1 6.09426 9.44928 11.7938 3.92627e-05 -3.69171e-06 1.44508e-05 4.20002e-05
61 1 7.19669 11.6439 2.69396 -1.15106e-06 2.0937e-05 1.77229e-05 2.74551e-05
62 1 7.94909 11.254 6.28471 8.05446e-06 -4.33961e-05 -2.86396e-05 5.26148e-05
63 1 4.33841 0.789521 0.92019 -5.4925e-05 -5.55998e-06 7.54267e-05 9.34712e-05
64 1 8.90126 0.513258 4.30309 -1.34594e-05 3.19736e-05 4.67907e-07 3.46942e-05
65 1 7.13429 0.270515 8.28791 -1.30475e-05 -2.7296e-05 -2.67224e-05 4.03658e-05
66 1 7.49277 11.5029 11.1524 -2.64969e-05 -1.07002e-05 1.80988e-05 3.38252e-05
67 1 6.66427 9.38948 7.38885 8.74306e-06 1.10753e-05 -1.08927e-05 1.78257e-05
68 1 8.49374 1.65394 1.9193 -2.18932e-05 1.05483e-05 1.84482e-05 3.05109e-05
69 1 10.5558 1.43413 5.9527 1.23315e-05 4.40962e-05 1.45032e-05 4.803e-05
70 1 9.73059 2.57025 8.03476 -5.37949e-05 2.98414e-05 5.1102e-07 6.15196e-05
71 1 8.76807 1.22159 9.9737 1.79996e-05 1.46438e-05 -5.9134e-05 6.35236e-05
72 1 10.4774 2.25105 11.8443 -0.000118985 -1.17209e-05 -2.53754e-05 0.000122224
73 1 8.04967 2.3334 11.9557 -5.27278e-05 -8.50093e-05 -6.14924e-05 0.000117423
74 1 8.06971 4.07705 2.13696 5.35776e-05 1.35212e-05 6.2442e-07 5.52609e-05
75 1 7.07504 3.91048 6.25392 -2.11391e-05 -1.0831e-05 -3.03222e-05 3.85177e-05
76 1 7.81838 2.73778 4.14731 -1.43672e-06 3.2825e-05 -3.44231e-05 4.75867e-05
77 1 6.86241 8.27842 9.71652 2.01376e-05 -5.88504e-06 -5.91828e-06 2.17987e-05
78 1 5.2376 7.35854 8.06553 2.66884e-05 2.02093e-05 -1.59265e-05 3.70721e-05
79 1 5.06723 8.44023 5.72211 2.89178e-05 4.18768e-06 -6.18509e-06 2.98669e-05
80 1 1.44677 10.7952 5.51734 5.03611e-05 -1.91315e-05 2.77386e-05 6.05945e-05
81 1 0.958731 11.0494 10.3315 -2.17059e-05 4.29786e-05 -4.32046e-05 6.46912e-05
82 1 0.526904 11.9301 7.44619 7.71786e-06 3.17944e-05 -1.74175e-05 3.70651e-05
83 1 1.60573 1.18477 5.59707 -6.92479e-05 4.8093e-06 2.51774e-05 7.38398e-05
84 1 11.0686 0.945736 9.46597 -0.000105496 -9.42516e-06 -7.57387e-05 0.00013021
85 1 0.517663 3.46488 5.31541 -3.4949e-05 3.52621e-06 8.07973e-06 3.60437e-05
86 1 3.24932 2.10498 7.27297 -4.96681e-06 -1.38206e-06 1.13105e-05 1.24301e-05
87 1 2.36166 3.2464 9.30744 1.96889e-05 3.48455e-05 4.00426e-05 5.66151e-05
88 1 1.22578 1.74656 10.9621 0.000129899 0.00013561 9.20106e-05 0.000209116
89 1 1.12566 3.29087 0.96182 3.66629e-05 -4.71974e-05 -1.91537e-05 6.27585e-05
90 1 1.94424 0.985077 1.33075 -2.22114e-05 -3.87336e-05 -7.08226e-06 4.52083e-05
91 1 0.404029 4.54095 2.98466 7.34151e-05 -1.86088e-05 6.63768e-06 7.60271e-05
92 1 1.3051 5.50484 9.08178 -3.28334e-05 -5.55614e-05 1.30083e-05 6.58356e-05
93 1 10.3941 4.69988 11.7978 1.78695e-05 -2.10569e-05 3.98083e-05 4.84501e-05
94 1 2.88974 5.24365 0.277299 1.37409e-05 8.39956e-05 1.64063e-05 8.66789e-05
95 1 11.3148 9.88521 3.93448 -2.10187e-05 -4.87672e-05 -1.77644e-05 5.59964e-05
96 1 0.582732 11.1067 1.87806 -2.3838e-05 -4.32328e-05 -8.15932e-06 5.0039e-05
97 1 1.25037 9.90411 12.6181 -1.97891e-05 4.13222e-05 1.66916e-05 4.87621e-05
98 1 2.003 8.74792 10.5494 -8.16058e-06 4.76081e-05 -2.48968e-05 5.43413e-05
99 1 10.2308 2.55932 3.59662 5.21223e-06 -3.45135e-05 2.60185e-05 4.35352e-05
100 1 0.770284 2.3474 7.62737 -1.56237e-06 2.34103e-05 1.8401e-05 2.98174e-05
101 1 0.454022 5.61411 0.694103 6.76e-05 2.84353e-05 3.71934e-05 8.22294e-05
102 1 10.1289 3.55409 1.15174 2.67303e-05 -3.14848e-05 1.32105e-05 4.33626e-05
103 1 9.49478 3.68728 5.76738 -2.64725e-05 1.00213e-05 -2.20983e-05 3.59103e-05
104 1 8.89296 3.73511 10.1385 -2.25586e-05 -2.33686e-07 3.22382e-05 3.93478e-05
105 1 9.54851 4.92374 3.63886 8.55151e-06 -6.77656e-05 -0.000122003 0.000139821
106 1 1.96288 6.53152 2.38358 3.43913e-05 5.18136e-06 9.61904e-07 3.47927e-05
107 1 10.268 5.77332 9.48325 -5.03237e-05 -3.83319e-05 3.01774e-05 7.00892e-05
108 1 11.1197 4.61423 7.41647 -3.55393e-05 1.65447e-05 1.00131e-05 4.04603e-05
109 1 11.2863 3.47198 9.7039 -8.75384e-06 5.07072e-05 4.57939e-05 6.88834e-05
110 1 10.9345 6.84428 2.82574 2.99079e-05 -4.71945e-06 -7.33227e-07 3.02869e-05
111 1 10.8503 7.8235 0.336791 -1.47979e-05 5.67173e-06 4.5537e-06 1.64888e-05
112 1 0.922979 8.70765 1.96473 -1.48899e-05 -1.07522e-06 -2.38495e-05 2.81365e-05
113 1 0.164454 8.95457 6.56081 8.08665e-06 -2.4029e-05 -1.32299e-05 2.85975e-05
114 1 0.37441 7.8429 8.88923 3.21898e-05 -2.77626e-05 -2.49336e-05 4.92811e-05
115 1 9.18575 0.33139 12.775 -5.13507e-05 -7.72221e-06 2.02307e-05 5.57297e-05
116 1 11.0612 5.79103 5.21073 2.74098e-05 1.551e-05 -4.71144e-06 3.18443e-05
117 1 1.21691 6.686 6.83787 3.03831e-06 -3.56182e-05 2.03214e-06 3.58052e-05
118 1 0.42049 6.65374 11.1259 2.84216e-05 1.35915e-05 4.99639e-05 5.9067e-05
119 1 5.70516 1.86532 6.87238 -3.20932e-05 -3.33506e-05 9.72409e-06 4.72948e-05
120 1 4.86746 3.01967 8.94308 -2.53969e-05 7.33037e-06 4.86603e-05 5.53765e-05
121 1 3.69986 1.45654 10.4644 -3.72862e-05 -2.39881e-05 2.01892e-05 4.87165e-05
122 1 4.2035 3.33545 1.07515 0.000135641 0.000195518 0.00014116 0.00027668
123 1 3.69532 1.9733 3.00654 -1.0413e-06 8.71893e-05 -1.61056e-05 8.86704e-05
124 1 2.83299 4.28554 2.72638 4.48401e-05 3.13106e-06 3.03833e-05 5.42548e-05
125 1 2.15777 4.37632 7.01111 -3.13966e-05 3.46263e-05 3.90201e-05 6.08876e-05
126 1 2.97543 3.20611 5.00118 -3.04942e-05 8.13409e-06 3.67731e-05 4.84595e-05
127 1 3.76014 5.28011 8.67581 -1.36607e-05 3.09959e-05 -1.99288e-06 3.39313e-05
128 1 4.40514 6.22538 1.94067 3.84801e-05 -1.82454e-05 -8.31435e-06 4.33905e-05
129 1 2.01781 5.48787 4.72713 2.21738e-05 2.97652e-05 5.2505e-05 6.42995e-05
130 1 3.6254 6.42959 6.41261 2.99192e-05 9.17574e-06 1.22229e-05 3.35969e-05
131 1 2.85615 6.38082 10.7322 -7.46503e-06 7.32713e-05 -5.07468e-05 8.94407e-05
132 1 6.86153 7.08528 11.9476 -1.27757e-05 4.73346e-06 -1.82381e-05 2.27652e-05
133 1 5.83659 8.23211 1.15049 3.704e-05 1.42388e-05 -4.69596e-06 3.99594e-05
134 1 3.49726 7.4751 4.0599 1.28709e-05 -3.1667e-05 1.67579e-05 3.80695e-05
135 1 1.40099 4.30845 11.4194 2.73591e-05 1.64685e-05 -3.27465e-06 3.21007e-05
136 1 9.51419 0.0659021 7.88533 6.77003e-05 2.81293e-05 -1.88532e-05 7.5697e-05
137 1 1.28319 2.26546 3.30576 -1.24152e-05 -4.16068e-05 5.62642e-06 4.37826e-05
138 1 2.10081 0.671704 8.97707 8.49745e-06 7.42491e-06 9.7509e-06 1.49136e-05
139 1 5.42657 5.10881 12.6533 3.14295e-05 2.09564e-05 -2.57054e-10 3.77754e-05
140 1 3.3888 8.43402 1.57587 1.24396e-05 -2.56591e-05 3.38069e-05 4.42271e-05
141 1 1.05961 7.76229 4.49899 5.48095e-06 -2.77288e-05 -1.51601e-06 2.83059e-05
142 1 2.62377 8.70084 6.16617 8.70412e-06 -1.52179e-05 -2.85337e-05 3.34891e-05
143 1 2.80758 7.59412 8.48794 2.26756e-05 5.79066e-05 -1.6172e-05 6.42565e-05
144 1 4.4286 8.51493 10.1375 -1.20129e-05 1.67118e-05 2.11046e-05 2.94787e-05
145 1 1.92542 7.53319 12.7665 -1.78352e-05 3.34837e-05 -1.9594e-05 4.26987e-05
146 1 2.80549 2.43019 12.4054 -0.000203704 -0.000211231 -0.000156036 0.000332357
147 1 3.00596 10.8353 1.49527 -4.2414e-06 -3.14477e-05 2.86595e-05 4.27587e-05
148 1 3.92364 10.5453 5.14101 2.094e-05 -4.1523e-05 -2.43916e-05 5.25128e-05
149 1 1.76973 9.89478 8.24408 1.43512e-05 1.7524e-05 -1.78084e-05 2.8813e-05
150 1 3.4 10.8299 9.92127 -1.1124e-05 7.22885e-06 3.32118e-05 3.57634e-05
151 1 2.62717 11.9617 12.0348 -1.56728e-05 -3.77781e-06 2.03771e-05 2.59833e-05
152 1 2.35217 12.0576 3.57287 1.17315e-05 1.11746e-05 8.08584e-06 1.81075e-05
153 1 3.03275 11.6855 7.07759 2.45816e-05 3.03751e-05 2.52437e-05 4.65204e-05
154 1 4.05284 0.917767 5.23363 -6.88249e-05 2.56529e-05 -2.66562e-06 7.34986e-05
155 1 2.39456 9.61683 3.57335 2.8069e-05 -1.48701e-05 3.0818e-06 3.19137e-05
156 1 0.20749 0.0746919 12.4144 -2.63096e-05 1.73816e-05 -8.37151e-06 3.26251e-05
