ITEM: TIMESTEP
0
ITEM: NUMBER OF ATOMS
133
ITEM: BOX BOUNDS pp pp pp
0.0000000000000000e+00 1.1400361000000000e+01
0.0000000000000000e+00 1.2098903999999999e+01
0.0000000000000000e+00 1.2816801000000000e+01
ITEM: ATOMS id type x y z fx fy fz v_fmag
1 1 0.765403 8.05502 2.26515 -7.98763e-06 4.26119e-05 1.42475e-05 4.56351e-05
2 1 9.17026 6.6321 9.35686 -1.08579e-05 -1.12392e-05 1.48575e-07 1.5628e-05
3 1 7.47928 5.17652 7.58624 1.0682e-05 -2.57931e-05 1.72098e-05 3.27958e-05
4 1 8.72618 6.40784 5.39888 1.00015e-07 3.22641e-05 2.30091e-06 3.23462e-05
5 1 6.36602 5.22851 3.30718 -1.90414e-05 -5.14324e-06 1.30039e-05 2.36247e-05
6 1 7.65167 2.96194 11.8903 -9.86622e-07 3.79463e-05 1.93214e-05 4.25935e-05
7 1 8.88003 4.07333 9.44247 1.74532e-05 3.60349e-06 -1.24837e-05 2.17587e-05
8 1 6.99138 2.70002 8.05568 -5.36655e-07 1.42894e-05 1.23432e-05 1.88899e-05
9 1 7.74584 4.10365 5.17479 2.19804e-06 -1.31072e-05 1.10833e-05 1.73052e-05
10 1 9.31929 4.43361 0.614643 -1.37462e-05 1.49694e-05 -9.445e-07 2.03454e-05
11 1 8.50668 1.56428 9.96556 1.68548e-05 5.6452e-06 -1.13438e-05 2.10864e-05
12 1 7.04866 1.69871 5.71755 1.27761e-05 2.42758e-05 -1.23392e-05 3.00799e-05
13 1 8.05803 3.27047 2.80066 -2.4202e-05 1.97573e-06 1.45043e-05 2.82846e-05
14 1 6.46432 1.85465 1.32967 8.64486e-06 -3.2564e-05 -2.06934e-05 3.95394e-05
15 1 8.47638 0.588901 7.60054 3.65433e-05 -3.80544e-05 -9.99235e-06 5.36973e-05
16 1 5.81351 0.246014 3.91306 -3.73605e-05 -2.66526e-05 -1.23168e-05 4.7517e-05
17 1 4.80502 11.4224 10.1713 2.48755e-05 -3.45729e-05 -1.22423e-06 4.26096e-05
18 1 10.7549 0.94588 6.42962 2.63135e-05 -2.77969e-05 -2.37747e-05 4.50589e-05
19 1 7.59132 10.1364 3.2761 2.12319e-05 -2.95181e-05 3.431e-05 4.99929e-05
20 1 9.24574 11.3937 1.18579 2.60499e-05 1.71377e-05 1.4656e-05 3.44543e-05
21 1 4.28895 10.1312 0.509467 3.94783e-05 -1.79829e-05 8.3292e-06 4.41734e-05
22 1 6.75246 10.0675 7.63945 7.27855e-05 1.63377e-05 1.52905e-05 7.61475e-05
23 1 6.29181 8.9424 5.37681 5.57897e-05 2.03543e-05 -1.62384e-05 6.15669e-05
24 1 8.05343 9.20321 0.858157 -1.36651e-05 -2.86123e-06 1.13208e-05 1.79745e-05
25 1 5.54328 7.93422 12.2712 1.44358e-05 -5.37108e-05 -1.81756e-05 5.85115e-05
26 1 6.06309 9.0147 9.83541 2.92442e-05 4.32322e-06 2.61652e-05 3.94782e-05
27 1 5.27959 7.75082 7.70733 -7.6058e-06 -4.23821e-06 1.434e-05 1.67764e-05
28 1 7.34885 7.53646 3.52842 -9.99245e-06 3.78805e-05 -4.8485e-06 3.94752e-05
29 1 4.85733 6.24489 1.4777 -7.72323e-06 -4.6458e-06 -9.33301e-06 1.29745e-05
30 1 5.01503 2.9728 12.2359 -2.73168e-06 -2.73795e-05 1.56513e-05 3.16554e-05
31 1 7.99508 5.46745 11.5402 -4.27998e-05 1.97117e-05 2.32075e-05 5.25258e-05
32 1 7.33424 6.72033 1.01324 -1.706e-05 7.86307e-06 -2.01351e-05 2.75371e-05
33 1 9.62781 8.39073 2.6974 1.51401e-05 -2.90445e-05 -1.40072e-05 3.56231e-05
34 1 7.8041 7.74579 7.36738 -5.17277e-05 4.30499e-05 8.38569e-06 6.78187e-05
35 1 9.0005 10.3731 11.5447 -9.98679e-06 -2.60264e-07 -3.43328e-05 3.57567e-05
36 1 0.0642288 10.609 6.50021 0.000131156 3.40681e-05 4.88466e-06 0.000135596
37 1 10.4369 8.186 10.9616 1.38113e-05 -1.71651e-05 -1.64862e-05 2.7517e-05
38 1 11.3516 9.42818 8.77425 3.9016e-05 -3.08998e-05 3.72927e-06 4.99095e-05
39 1 10.3646 7.89388 6.88023 2.71925e-06 -2.75161e-05 2.22614e-05 3.54979e-05
40 1 9.72017 7.04157 0.44089 1.18357e-05 -8.7177e-06 -4.78398e-06 1.54586e-05
41 1 10.5653 5.58873 11.2922 -2.13154e-06 -4.9601e-06 1.30237e-05 1.40983e-05
42 1 0.330755 6.89364 8.8495 -6.61611e-06 -4.35558e-07 2.06992e-05 2.17352e-05
43 1 10.0538 5.37915 7.35995 4.31628e-05 -1.38583e-05 2.39018e-05 5.12482e-05
44 1 11.0209 6.66153 4.23944 9.95109e-06 5.37714e-05 3.13722e-05 6.30444e-05
45 1 8.99331 5.68033 2.87244 9.82509e-06 -7.21028e-06 3.20542e-05 3.42928e-05
46 1 10.2272 3.03549 11.3091 7.35143e-07 1.59013e-05 -3.47381e-05 3.82116e-05
47 1 0.0881731 4.39272 9.2677 2.10645e-05 -1.16697e-05 3.05918e-05 3.89327e-05
48 1 9.227 3.01123 6.99729 -2.08816e-06 -1.14979e-05 3.26836e-05 3.471e-05
49 1 6.64498 6.59206 9.64527 -1.92619e-05 3.85935e-05 2.65431e-05 5.0646e-05
50 1 10.2883 4.37227 4.9607 2.32105e-05 -6.52901e-06 3.3511e-05 4.12837e-05
51 1 10.0908 0.549699 11.7979 -1.80878e-05 -3.89893e-05 -2.27506e-05 4.86305e-05
52 1 10.716 2.01855 8.88308 -9.51603e-06 -2.98631e-05 2.85773e-05 4.24148e-05
53 1 9.35804 1.98325 4.62613 -4.1638e-05 1.2514e-05 5.97945e-06 4.38871e-05
54 1 9.08355 1.89713 0.91075 -2.86287e-05 1.02909e-05 -1.76171e-06 3.0473e-05
55 1 0.867648 0.122374 8.29225 2.80109e-05 -6.76718e-06 -6.40764e-06 2.95205e-05
56 1 8.06155 0.629066 3.00017 2.83412e-05 -5.25662e-06 -2.44288e-05 3.77839e-05
57 1 7.38825 11.3747 9.76473 3.68205e-05 -2.8536e-05 -8.85696e-06 4.74183e-05
58 1 9.77674 11.2914 4.46414 6.85008e-06 1.44206e-06 3.45837e-05 3.52851e-05
59 1 10.6539 9.3954 0.423351 3.7155e-05 9.76652e-06 1.53367e-05 4.13654e-05
60 1 6.41877 10.2906 11.959 1.63269e-05 -1.58896e-05 1.20141e-05 2.57563e-05
61 1 9.20481 10.3041 7.2196 -0.000137168 -1.70615e-05 6.3659e-05 0.00015218
62 1 8.79195 8.94183 5.16254 -6.66708e-05 -3.212e-05 -1.58241e-05 7.56776e-05
63 1 7.93478 7.98063 11.4624 -3.86562e-05 3.40269e-05 3.21291e-06 5.1599e-05
64 1 8.68523 9.15113 9.32739 2.76907e-05 3.10035e-05 -6.84066e-05 8.00466e-05
65 1 10.5861 3.39009 2.62929 -2.42469e-05 1.57287e-05 2.77329e-05 4.00552e-05
66 1 10.0086 11.5756 9.38643 -1.36424e-06 1.14982e-06 -5.20481e-06 5.50212e-06
67 1 4.93743 5.27112 8.19447 7.98051e-06 7.81817e-06 -9.40451e-06 1.46033e-05
68 1 3.99335 4.98787 4.21332 -1.237e-05 2.67761e-05 -2.11068e-06 2.95708e-05
69 1 4.28709 3.63538 1.91044 2.25132e-05 -2.28731e-05 -1.886e-05 3.72254e-05
70 1 4.96684 0.429691 12.4683 2.64769e-05 -2.69091e-05 -6.4603e-06 3.82996e-05
71 1 3.46275 1.60007 10.5427 2.61693e-05 -5.14982e-05 2.58083e-05 6.3269e-05
72 1 1.97947 1.38013 6.32055 2.58125e-05 1.80486e-06 -6.03926e-06 2.6571e-05
73 1 3.11483 2.60304 4.11754 -2.44125e-06 2.08298e-05 1.2614e-05 2.44735e-05
74 1 1.68657 1.35676 2.44538 -6.79645e-06 8.42916e-06 -1.53473e-05 1.87825e-05
75 1 3.41458 0.419337 8.25328 4.36932e-05 1.73543e-06 -1.45565e-05 4.60868e-05
76 1 0.0480747 10.5044 2.52536 -4.29934e-05 -1.567e-05 -1.88285e-05 4.94823e-05
77 1 0.228323 10.5656 11.1389 -1.35053e-07 1.8409e-06 3.4326e-05 3.43756e-05
78 1 4.99078 11.1184 5.97319 -2.8616e-06 5.02154e-05 -6.1356e-05 7.93368e-05
79 1 2.17713 9.74222 4.11462 -4.73773e-06 3.4002e-06 -9.95497e-06 1.15373e-05
80 1 2.5494 11.1031 2.02132 -1.4117e-05 2.51914e-05 -2.35755e-05 3.72787e-05
81 1 2.21013 10.5234 9.47092 2.48949e-05 1.73837e-05 5.70893e-06 3.08956e-05
82 1 1.40722 8.45814 6.44817 3.24056e-05 2.28333e-06 -3.44972e-05 4.73856e-05
83 1 3.25705 8.40681 2.10711 2.03774e-06 7.00579e-07 2.93552e-06 3.64149e-06
84 1 1.51506 8.33689 10.6931 -4.12393e-05 4.39673e-06 1.45421e-05 4.39487e-05
85 1 2.17278 7.18903 4.32266 -2.95089e-05 3.57748e-05 8.01277e-06 4.70619e-05
86 1 11.3683 5.66135 1.89633 -5.6258e-06 2.24085e-05 3.3207e-05 4.04536e-05
87 1 1.74489 5.83945 10.8255 -1.22169e-05 1.78472e-06 -8.08478e-06 1.47581e-05
88 1 0.935636 5.93863 6.37557 8.38868e-06 -2.2384e-05 -1.01882e-06 2.3926e-05
89 1 1.43942 3.33964 11.2126 5.72772e-07 -2.56954e-05 1.49804e-05 2.97488e-05
90 1 0.377661 3.43062 6.85607 -2.56445e-05 -5.6762e-06 -1.87453e-05 3.22683e-05
91 1 0.189227 2.31533 0.493024 -1.80423e-05 2.01683e-06 4.10791e-05 4.4912e-05
92 1 0.936024 0.941332 10.7288 3.81087e-06 -8.98354e-06 -1.2126e-06 9.83347e-06
93 1 0.838576 11.922 4.48416 -2.53701e-05 -8.74355e-06 1.60471e-05 3.12666e-05
94 1 0.502059 2.33154 4.52067 1.65708e-05 2.5633e-05 -1.33991e-05 3.33343e-05
95 1 2.49397 10.9188 6.49273 -5.54458e-05 -9.64791e-06 -1.55815e-05 5.8396e-05
96 1 11.2237 9.07934 4.57451 -7.47173e-06 3.55093e-05 -7.19334e-05 8.05677e-05
97 1 0.602585 11.9116 0.505072 8.42976e-06 9.51834e-06 -2.34269e-07 1.27167e-05
98 1 2.87836 3.82761 6.38497 2.13928e-05 5.33261e-06 -3.63671e-05 4.25283e-05
99 1 1.93354 2.61638 8.72897 -8.61991e-06 -4.85047e-05 -2.06813e-05 5.34296e-05
100 1 3.72641 4.19326 10.3005 -3.02566e-05 -1.47338e-05 -9.17882e-07 3.36658e-05
101 1 2.72016 1.8167 0.137413 -9.40139e-06 -1.17146e-05 -6.14134e-06 1.62275e-05
102 1 7.55805 0.42057 12.2041 4.66479e-06 3.04807e-05 -2.37106e-05 3.88976e-05
103 1 6.31517 4.08192 10.014 -2.32775e-06 -4.02474e-05 2.08736e-06 4.03687e-05
104 1 4.48439 2.73713 8.33661 2.8865e-05 -1.6564e-05 2.92769e-05 4.43248e-05
105 1 5.44547 3.88463 6.14665 6.72359e-06 2.91262e-05 -3.24387e-05 4.41114e-05
106 1 6.65897 4.33687 0.940511 1.0269e-05 2.1242e-05 -1.42095e-05 2.75424e-05
107 1 6.01106 1.55557 10.2754 -2.47584e-05 1.26409e-05 3.02456e-05 4.108e-05
108 1 4.50754 1.53713 6.02446 -1.69133e-05 -7.55678e-06 -1.23387e-05 2.22577e-05
109 1 5.701 2.76707 3.80328 -3.83374e-06 -7.09217e-06 -1.62413e-05 1.81322e-05
110 1 4.22527 0.974174 2.08324 9.92422e-06 3.65954e-05 -6.86146e-07 3.79234e-05
111 1 5.92198 0.384778 7.91819 9.48666e-06 -3.6126e-06 -1.18552e-05 1.56075e-05
112 1 3.28464 0.0597575 4.31033 3.07291e-05 2.62122e-05 -4.53277e-05 6.07121e-05
113 1 2.68693 11.5155 11.8291 -2.37104e-05 -2.01083e-05 2.18674e-05 3.80094e-05
114 1 7.51948 11.3283 5.55331 -2.8561e-05 -4.08736e-06 2.55586e-05 3.85445e-05
115 1 4.69147 10.1116 3.52858 -1.24263e-05 1.11853e-05 -1.52823e-05 2.26511e-05
116 1 6.1313 6.32034 5.71247 -1.62655e-06 2.9121e-06 4.54653e-06 5.63887e-06
117 1 6.35386 11.3545 1.49978 2.23172e-05 -1.11295e-06 -3.32561e-05 4.00657e-05
118 1 4.28039 10.0229 8.15643 -4.81777e-05 -9.65759e-06 -1.09057e-05 5.03318e-05
119 1 3.83342 8.81906 5.82199 1.7486e-06 -4.32151e-05 4.68326e-06 4.35033e-05
120 1 5.83866 8.66954 1.8638 -1.00997e-05 -1.67768e-05 -3.72865e-05 4.21159e-05
121 1 3.10683 7.23369 12.5998 -7.60733e-06 -1.82837e-06 2.37116e-06 8.17538e-06
122 1 3.79818 9.25616 10.9882 6.50487e-05 1.61068e-05 5.31673e-06 6.72237e-05
123 1 2.7345 7.99239 8.45596 -3.94167e-05 1.34806e-05 -2.66954e-05 4.94778e-05
124 1 4.74601 7.3891 3.86599 9.58758e-06 -1.22041e-06 -4.76751e-06 1.07768e-05
125 1 2.51663 5.87196 2.18523 -1.31308e-05 -1.27031e-06 -4.19973e-05 4.40205e-05
126 1 3.08378 4.63619 12.7514 -1.94309e-05 -4.03476e-05 2.38759e-06 4.48463e-05
127 1 4.11037 6.82663 10.1588 -1.07585e-05 -2.41626e-05 1.07884e-05 2.85651e-05
128 1 2.37332 5.30237 8.42732 2.52493e-05 3.84916e-05 5.56515e-05 7.22234e-05
129 1 3.52734 6.36157 6.34157 1.19854e-05 3.24165e-05 3.30678e-06 3.47191e-05
130 1 1.37707 4.6742 4.17751 -3.27242e-06 2.73236e-06 5.90409e-07 4.30384e-06
131 1 5.38815 5.49453 11.8888 -5.55687e-05 -9.27299e-07 5.85382e-06 5.58838e-05
132 1 1.77334 9.44491 0.206426 -1.86335e-05 1.38335e-05 3.33263e-05 4.06105e-05
133 1 10.6498 0.849144 2.64841 -5.6393e-05 1.15937e-05 -1.51514e-05 5.95327e-05
