ITEM: TIMESTEP
0
ITEM: NUMBER OF ATOMS
125
ITEM: BOX BOUNDS pp pp pp
0.0000000000000000e+00 1.1464695000000001e+01
0.0000000000000000e+00 1.1317634999999999e+01
0.0000000000000000e+00 1.1648808000000001e+01
ITEM: ATOMS id type x y z fx fy fz v_fmag
1 1 2.00363 11.1868 6.95753 -2.13792e-05 2.2844e-06 2.8646e-05 3.58173e-05
2 1 10.8897 10.044 11.4 -6.17574e-05 -6.61646e-05 4.9182e-05 0.000103008
3 1 9.26159 6.48511 9.14451 2.48799e-05 7.54862e-06 2.97915e-05 3.95415e-05
4 1 7.82523 5.38577 7.36111 5.23668e-06 -7.4345e-06 -4.25842e-05 4.35443e-05
5 1 8.76566 7.20795 5.58694 -2.22297e-05 1.77256e-05 -4.08891e-05 4.98023e-05
6 1 6.37049 6.12613 3.52214 -5.47442e-05 3.00885e-05 -1.52932e-05 6.43127e-05
7 1 9.58727 8.21638 1.43859 6.98258e-05 -1.99232e-05 4.64961e-05 8.62233e-05
8 1 8.18801 7.19405 11.2867 -2.44633e-05 -1.61915e-05 -4.35781e-05 5.25326e-05
9 1 6.86543 3.55988 9.10496 3.40273e-05 3.85725e-06 -7.58554e-06 3.50753e-05
10 1 7.85366 4.86263 4.97193 3.1361e-05 -2.84071e-06 6.67778e-06 3.21896e-05
11 1 6.36308 3.70912 3.14394 -1.88876e-05 1.9887e-05 -4.30172e-06 2.77622e-05
12 1 7.3157 5.40832 1.33826 -1.35236e-05 -2.12341e-05 -1.51445e-05 2.93791e-05
13 1 8.32 4.67966 10.8479 5.74947e-06 -1.41075e-05 2.71359e-06 1.54739e-05
14 1 8.41085 1.63074 8.08243 2.63041e-05 1.00766e-05 7.82779e-06 2.92356e-05
15 1 6.87438 3.09322 6.70484 2.34966e-05 -8.81802e-06 -1.76076e-05 3.06574e-05
16 1 6.3856 1.27117 2.77933 -1.07773e-05 -1.81351e-05 -3.95491e-06 2.14633e-05
17 1 7.35859 2.96586 0.961028 2.27995e-05 7.03641e-05 -6.43686e-06 7.42453e-05
18 1 0.960289 0.595311 9.08827 2.77516e-05 -1.89201e-05 -1.15571e-05 3.55202e-05
19 1 9.46701 0.91162 5.93581 -7.07794e-05 5.47486e-06 -6.43688e-05 9.58282e-05
20 1 7.3259 0.536899 0.599738 2.66523e-05 -5.82544e-05 1.50585e-05 6.58079e-05
21 1 5.61129 9.27828 0.395498 -7.18124e-06 -1.58816e-05 6.1485e-06 1.84824e-05
22 1 6.00978 10.0264 7.95874 3.23111e-05 4.41894e-06 5.53627e-06 3.30784e-05
23 1 5.5693 10.8041 4.49632 1.97548e-05 4.11913e-05 2.697e-05 5.30505e-05
24 1 5.67724 6.83944 11.6312 1.82335e-07 -1.75984e-05 3.11527e-06 1.7873e-05
25 1 6.69676 8.68343 9.94091 -1.54945e-05 -3.94925e-06 3.7503e-05 4.07695e-05
26 1 5.24572 7.5661 8.12136 -3.86654e-07 -1.01083e-05 1.2258e-05 1.58929e-05
27 1 7.09604 9.30061 5.80192 3.15562e-05 6.54555e-06 1.88182e-05 3.73198e-05
28 1 5.61844 8.32818 3.96459 6.52467e-05 -2.7089e-05 3.48255e-06 7.07324e-05
29 1 8.26082 8.77761 3.66157 2.93292e-05 -3.67992e-05 -3.52436e-05 5.87919e-05
30 1 9.62974 9.69764 5.49239 -3.59374e-05 -8.37825e-06 1.88769e-05 4.14491e-05
31 1 7.73018 7.93845 7.79473 1.44635e-06 1.74952e-05 -2.37131e-05 2.9504e-05
32 1 9.22058 9.05283 9.63758 -2.27444e-05 -1.88069e-05 -8.30463e-06 3.0659e-05
33 1 9.97075 0.18175 9.51224 1.81953e-06 -4.56373e-06 -8.89058e-06 1.01578e-05
34 1 11.0064 10.7929 7.30497 1.76224e-05 6.76559e-06 2.49108e-05 3.12549e-05
35 1 10.4952 0.226016 3.72881 -3.16122e-05 1.14663e-05 5.96715e-05 6.84945e-05
36 1 10.6964 7.53987 10.9476 2.21306e-05 2.31795e-05 3.45916e-06 3.22338e-05
37 1 0.327083 9.42536 9.21603 -4.77498e-05 3.56458e-05 6.50787e-05 8.82377e-05
38 1 10.2398 8.30855 7.45348 1.38044e-05 2.92002e-05 2.98065e-05 4.39504e-05
39 1 10.7349 9.2093 3.27372 -2.84696e-05 -2.74953e-05 -6.7906e-05 7.85986e-05
40 1 0.275596 6.84304 8.78657 5.87401e-06 6.56961e-06 3.76136e-07 8.82073e-06
41 1 10.3003 5.75333 6.99335 3.18163e-05 6.06215e-06 9.46959e-06 3.37446e-05
42 1 11.2823 7.6105 5.22087 3.09333e-05 -3.07717e-05 1.42211e-06 4.36554e-05
43 1 8.80917 6.49848 3.15217 -8.95526e-07 2.02564e-05 -5.36883e-07 2.02833e-05
44 1 10.8043 5.02298 10.5089 -1.19294e-05 -1.17279e-05 -1.08115e-05 1.99184e-05
45 1 9.35366 3.92092 8.73271 1.09332e-05 9.17951e-06 2.94521e-06 1.45764e-05
46 1 6.72361 10.1911 2.34676 -1.03932e-05 1.8976e-05 -2.05426e-05 2.98346e-05
47 1 10.3394 5.2446 4.5947 1.45225e-05 9.62754e-06 1.78061e-05 2.49128e-05
48 1 9.79411 5.76501 1.00171 -6.25247e-06 -2.30991e-06 -2.1442e-05 2.24541e-05
49 1 10.8606 2.4815 10.1456 -4.39972e-05 -1.81137e-05 6.73369e-06 4.80542e-05
50 1 10.8747 2.02544 7.73188 4.06817e-05 1.6192e-05 2.30232e-05 4.94697e-05
51 1 9.36656 3.45573 6.33359 -5.5766e-07 3.80929e-05 -2.44762e-05 4.52821e-05
52 1 7.89954 2.34222 4.57594 3.3843e-05 -7.89318e-06 1.16752e-06 3.47708e-05
53 1 9.83868 3.27399 0.630922 4.46774e-05 -1.38994e-05 2.55739e-05 5.33225e-05
54 1 9.79623 0.759289 0.31328 1.42093e-05 5.21529e-05 -7.41692e-07 5.4059e-05
55 1 0.450387 1.29273 5.59383 -2.09103e-05 -3.85741e-05 1.65566e-05 4.6897e-05
56 1 8.85736 1.55366 2.40945 -1.09738e-05 -3.32554e-05 4.35412e-05 5.58765e-05
57 1 7.46509 11.1361 9.83419 1.6955e-05 -3.2697e-05 1.4687e-05 3.96519e-05
58 1 8.53303 10.3982 7.64439 -9.0433e-06 7.34451e-06 1.58562e-05 1.96759e-05
59 1 8.06149 11.1847 4.1475 -1.78004e-05 4.49581e-05 2.74189e-06 4.84314e-05
60 1 8.20647 9.6916 0.167501 -6.90927e-05 5.37485e-05 -9.57494e-06 8.80589e-05
61 1 8.83622 4.04187 2.79892 1.26511e-05 -9.29901e-06 -6.19972e-05 6.39545e-05
62 1 10.3876 2.69189 4.18332 -8.3313e-06 -2.10232e-05 6.63735e-06 2.35678e-05
63 1 6.76955 6.1251 9.4955 -3.31515e-05 -1.47417e-05 2.84269e-05 4.60915e-05
64 1 6.27328 6.83241 5.93421 4.34684e-05 -8.62205e-06 -1.84108e-05 4.79875e-05
65 1 2.85667 4.18703 5.62187 -2.74902e-05 9.26783e-06 -2.02736e-05 3.53924e-05
66 1 1.4066 3.04293 3.83828 6.46125e-06 6.86673e-06 1.59026e-05 1.84877e-05
67 1 2.34428 4.74181 2.10105 -3.77538e-06 1.92187e-06 7.05869e-06 8.23239e-06
68 1 0.857603 3.59201 0.275122 -1.76597e-05 -2.92956e-05 1.07577e-05 3.58584e-05
69 1 4.36315 3.21451 9.43797 3.42757e-05 -3.34868e-05 5.84039e-06 4.82732e-05
70 1 3.43153 0.93666 8.75721 -1.26982e-05 3.36941e-05 5.82311e-06 3.64753e-05
71 1 2.9369 1.64314 5.26206 -1.54346e-06 1.91724e-05 1.20366e-05 2.26902e-05
72 1 1.47897 0.558174 3.46434 -8.73398e-07 -3.17176e-05 1.35893e-05 3.45172e-05
73 1 2.40893 2.2468 1.67049 -1.64374e-05 1.70319e-05 -2.51148e-05 3.45112e-05
74 1 0.83349 0.984427 11.4993 -3.74272e-05 9.04137e-06 -1.19619e-05 4.0319e-05
75 1 4.93503 10.7904 10.1502 3.35461e-06 1.69301e-05 5.10624e-06 1.79987e-05
76 1 4.49616 0.180882 6.63845 3.0351e-06 9.32536e-06 -7.10127e-06 1.21079e-05
77 1 2.37168 11.0802 1.29613 2.35289e-05 -4.22751e-05 2.68099e-06 4.84559e-05
78 1 1.34337 8.68545 7.07791 -4.27714e-05 -1.03753e-05 5.57637e-05 7.10396e-05
79 1 0.620445 10.0868 5.17131 1.42629e-05 -2.18461e-05 1.02561e-05 2.80334e-05
80 1 2.37946 10.3852 10.4939 -8.50008e-06 1.24253e-06 -1.10461e-05 1.39933e-05
81 1 2.40179 7.93352 4.92734 3.76371e-05 5.28464e-05 2.40125e-05 6.91801e-05
82 1 11.2973 6.88269 2.81374 -3.5399e-05 1.7079e-06 -2.98912e-05 4.63626e-05
83 1 1.72811 9.45883 3.06828 8.20119e-06 -6.20754e-07 3.08363e-05 3.19143e-05
84 1 1.69666 7.9028 10.5899 -1.09228e-05 -5.67607e-08 -7.20905e-06 1.30874e-05
85 1 1.31509 6.11678 6.63997 -3.31601e-05 -1.88888e-05 -2.9452e-05 4.82058e-05
86 1 0.806761 6.10437 0.669622 1.58162e-05 -3.91845e-05 -3.56917e-05 5.53125e-05
87 1 0.375663 3.8321 5.96747 3.70341e-06 1.53031e-05 1.08172e-05 1.91026e-05
88 1 11.3226 4.38718 2.43987 4.64395e-06 -2.35236e-05 -3.16308e-05 3.96918e-05
89 1 1.87638 2.84942 9.78634 1.85607e-05 3.49647e-05 2.02682e-05 4.44728e-05
90 1 11.3936 1.86107 2.00104 -1.53619e-05 3.12271e-05 1.32785e-05 3.72483e-05
91 1 3.34853 1.41394 11.1599 -3.61805e-05 3.369e-05 -7.43419e-06 4.99931e-05
92 1 1.88712 2.40227 7.37453 3.38341e-06 5.88513e-07 -2.913e-05 2.93317e-05
93 1 1.80606 5.38234 10.156 3.58518e-05 1.69536e-06 -3.04623e-05 4.70763e-05
94 1 3.25615 6.4463 0.290502 2.41664e-05 1.16701e-05 7.01612e-06 2.77386e-05
95 1 1.37381 5.61248 4.23887 4.08275e-06 5.9253e-06 -4.90023e-06 8.70576e-06
96 1 3.90662 6.03552 3.9455 -3.11211e-05 -7.71202e-07 -1.20606e-05 3.33852e-05
97 1 7.02793 7.81566 1.79105 -1.47863e-05 -1.60447e-05 2.1536e-05 3.06572e-05
98 1 3.33224 3.97422 11.5704 5.37811e-07 3.65063e-06 -5.27162e-05 5.28452e-05
99 1 4.37349 2.74305 7.04048 4.57778e-05 -2.38597e-05 -2.11261e-05 5.57781e-05
100 1 5.3488 4.51697 5.30081 -1.7714e-05 6.40562e-06 5.09565e-06 1.95136e-05
101 1 3.89359 3.41735 3.50465 1.17417e-05 -5.15612e-06 2.41314e-05 2.73272e-05
102 1 4.81068 5.18956 1.76592 -1.86134e-05 2.37738e-06 -2.36671e-05 3.02034e-05
103 1 5.80658 4.35198 11.2223 2.14986e-05 1.83807e-05 -1.51716e-05 3.2097e-05
104 1 5.92147 1.28027 8.42182 2.8227e-05 -9.10461e-06 3.72617e-05 4.76245e-05
105 1 5.41429 1.98618 4.9334 1.16373e-05 2.78009e-05 2.667e-05 4.02443e-05
106 1 3.93346 0.8915 3.12309 1.12441e-05 1.21092e-05 -9.11759e-06 1.88731e-05
107 1 4.8756 2.65358 1.32626 -3.83594e-05 -1.51488e-06 1.68485e-05 4.19239e-05
108 1 5.85136 1.8095 10.8107 -5.47844e-05 2.40278e-05 -5.57023e-06 6.00807e-05
109 1 5.36189 4.99398 7.70729 2.01253e-05 -6.58586e-06 -2.58133e-05 3.33875e-05
110 1 8.37989 2.13329 10.4764 1.65946e-05 -7.63845e-05 2.41489e-06 7.82036e-05
111 1 4.87019 0.172029 0.963376 3.79551e-06 -1.85403e-05 1.38565e-05 2.34553e-05
112 1 0.682001 8.57012 1.11926 -9.22327e-06 -8.44559e-06 -3.13079e-05 3.37132e-05
113 1 3.4358 9.67076 8.27741 2.59421e-05 1.99645e-05 -4.80869e-06 3.30862e-05
114 1 3.10075 10.4399 4.84782 -3.97742e-05 -2.11173e-05 3.33273e-05 5.60236e-05
115 1 3.15912 8.85967 0.715696 1.54436e-05 6.73704e-05 3.81571e-05 7.89508e-05
116 1 4.17707 8.31156 10.2134 -1.14957e-05 1.20907e-05 -2.59547e-05 3.08542e-05
117 1 2.75122 7.19232 8.4539 2.34177e-05 -2.61127e-05 -3.1176e-05 4.69276e-05
118 1 4.51912 8.88661 6.13394 -4.64243e-06 9.52057e-06 -1.41605e-05 1.76837e-05
119 1 2.38122 7.21382 2.4653 1.04793e-05 -2.97629e-05 1.35849e-05 3.4354e-05
120 1 4.1917 9.73705 2.67084 -5.90383e-05 -4.1943e-06 -1.22997e-05 6.04516e-05
121 1 4.28702 5.75624 9.80129 -6.77753e-07 3.1461e-05 -2.15732e-05 3.81531e-05
122 1 2.85301 4.64466 8.03287 1.07349e-05 -2.25028e-06 -1.01818e-06 1.10154e-05
123 1 3.81217 6.42098 6.359 3.19997e-05 1.013e-06 2.16015e-05 3.86217e-05
124 1 6.9862 0.537023 6.29639 -4.32541e-05 6.61135e-06 -3.62851e-05 5.6844e-05
125 1 0.367814 4.29121 8.37506 1.11158e-05 -1.65336e-05 -1.35037e-05 2.40681e-05
