ITEM: TIMESTEP
0
ITEM: NUMBER OF ATOMS
164
ITEM: BOX BOUNDS pp pp pp
0.0000000000000000e+00 1.1400361000000000e+01
0.0000000000000000e+00 1.2098903999999999e+01
0.0000000000000000e+00 1.2816801000000000e+01
ITEM: ATOMS id type x y z fx fy fz v_fmag
1 1 0.386472 1.35176 0.070979 -3.06949e-05 -7.52744e-05 9.42442e-06 8.18366e-05
2 1 8.62312 2.8347 4.89712 7.94343e-05 -3.95106e-05 -1.65079e-05 9.02409e-05
3 1 7.36762 1.4801 6.57323 5.44024e-05 -4.01456e-05 5.80045e-05 8.90832e-05
4 1 8.33647 3.70235 7.31162 -5.70533e-06 -1.63906e-05 1.54586e-05 2.32416e-05
5 1 7.09384 2.0968 8.92823 7.88603e-06 -2.40171e-05 5.62683e-05 6.16858e-05
6 1 10.5884 2.59143 11.1786 2.56328e-05 7.57953e-06 1.34842e-05 2.99385e-05
7 1 8.74917 5.0333 1.27747 -1.4471e-05 -1.0337e-05 -8.91015e-06 1.98911e-05
8 1 7.55654 3.47291 2.90215 1.74382e-05 1.02859e-05 -2.74231e-05 3.40869e-05
9 1 9.08345 1.35545 2.1836 5.5748e-05 -8.37294e-05 -1.75554e-06 0.000100606
10 1 8.43362 5.74541 3.66398 -1.90893e-05 4.10842e-05 -1.83432e-05 4.88752e-05
11 1 9.29791 5.95366 8.04452 2.7358e-05 -3.47766e-05 1.85692e-05 4.79863e-05
12 1 8.0353 4.32607 9.63555 1.88068e-05 -9.17841e-06 -1.07963e-05 2.35478e-05
13 1 9.06325 4.40016 11.7666 -2.28778e-05 2.58948e-05 -3.45011e-05 4.88289e-05
14 1 8.51306 8.42496 0.304554 -5.96568e-05 -1.83e-05 -1.27742e-05 6.36946e-05
15 1 7.24468 6.81896 1.87819 -2.32553e-05 4.12551e-05 -6.47839e-06 4.77992e-05
16 1 9.39987 7.95138 4.41087 4.06513e-05 -3.44563e-05 6.05181e-06 5.36319e-05
17 1 8.13199 6.58711 6.09213 4.23497e-06 7.92985e-05 -1.47308e-05 8.07662e-05
18 1 7.13245 4.4988 5.41342 -6.03008e-05 9.66261e-05 3.22842e-05 0.000118385
19 1 7.86424 2.75125 0.558577 -3.94871e-05 -1.16643e-05 6.20741e-05 7.44881e-05
20 1 8.12586 2.10888 11.069 -1.58646e-05 -3.18261e-07 6.56627e-06 1.71728e-05
21 1 8.58514 0.338253 8.28759 -3.20548e-06 3.58231e-05 -1.66201e-05 3.96206e-05
22 1 5.29382 7.35702 8.51883 -3.49565e-05 5.85932e-05 3.84631e-05 7.83232e-05
23 1 4.04517 5.67581 10.0696 -2.61377e-05 7.67801e-06 -9.3301e-06 2.87955e-05
24 1 7.04581 10.1232 0.938327 7.04117e-05 -7.99258e-05 -3.71207e-05 0.0001128
25 1 5.74055 8.57443 2.49375 1.70727e-05 -4.24557e-06 -7.48551e-06 1.9119e-05
26 1 5.44926 9.26785 4.88788 8.31255e-06 4.168e-05 -3.47824e-06 4.26429e-05
27 1 4.1582 7.86173 6.50457 -2.92066e-05 5.78065e-05 6.15972e-05 8.93802e-05
28 1 7.45992 8.39156 11.0002 -5.94347e-05 -4.90648e-05 -3.66504e-06 7.71574e-05
29 1 5.06444 5.74081 12.2087 -1.16571e-05 -3.25056e-05 3.54697e-05 4.95036e-05
30 1 5.4093 11.5715 1.54425 -0.000113477 0.000123683 2.44929e-05 0.00016963
31 1 4.17034 10.212 3.15662 -4.35008e-05 1.73945e-05 -2.99397e-06 4.69452e-05
32 1 7.61471 10.3183 7.46017 -1.94667e-05 -7.09454e-06 -5.3603e-05 5.7468e-05
33 1 6.22538 9.6532 9.38239 3.47905e-05 -3.03018e-05 -8.62362e-06 4.69355e-05
34 1 8.44076 10.6238 11.8137 -1.32011e-05 -5.19017e-05 1.14236e-05 5.4759e-05
35 1 6.39872 11.3998 5.74473 9.67271e-05 -2.8384e-05 -1.26032e-05 0.00010159
36 1 7.16226 11.9415 10.2884 3.08338e-05 6.0822e-05 2.23291e-05 7.17539e-05
37 1 11.3409 2.25047 2.51307 -5.22085e-05 0.000108966 4.74785e-05 0.000129821
38 1 8.87101 11.8423 5.90767 -1.37665e-06 1.42031e-05 -2.99532e-05 3.31785e-05
39 1 7.77199 7.80913 8.67458 3.88305e-06 1.95852e-05 -4.10685e-05 4.56648e-05
40 1 5.64748 6.18474 5.94189 3.29003e-05 -3.57959e-05 7.76192e-06 4.92344e-05
41 1 6.50899 6.13736 10.2222 -4.27874e-06 -1.94301e-06 -2.16418e-05 2.21462e-05
42 1 8.20735 9.00372 2.65732 -5.08525e-05 2.74008e-05 -2.85825e-05 6.44496e-05
43 1 9.90266 3.96892 3.0827 -1.6394e-05 -1.55077e-05 -3.90356e-05 4.50891e-05
44 1 10.8756 6.19361 3.81688 -3.94931e-05 5.4187e-05 -1.41928e-05 6.85374e-05
45 1 9.62515 4.9143 5.55203 2.65267e-05 6.48094e-05 -6.37812e-06 7.03179e-05
46 1 10.5115 4.76091 9.77098 -1.70353e-05 3.62372e-05 4.8909e-05 6.32094e-05
47 1 0.122594 4.84822 11.9184 2.2621e-06 -9.00494e-07 3.57566e-05 3.58394e-05
48 1 10.8707 8.95335 0.465269 -2.28568e-05 -7.10025e-05 2.74895e-05 7.94951e-05
49 1 9.68862 7.23916 2.0316 3.22767e-05 7.63054e-07 -2.20443e-05 3.90937e-05
50 1 11.1875 5.4463 1.42603 -3.89671e-05 1.17672e-05 -5.03237e-05 6.47254e-05
51 1 10.606 7.00931 6.2329 -1.50257e-05 4.38978e-05 -3.26763e-05 5.67497e-05
52 1 8.9846 6.56824 10.3612 -1.56331e-06 7.00633e-07 -2.31602e-05 2.32235e-05
53 1 10.5962 9.47881 2.7768 7.94129e-06 -5.68938e-05 6.74468e-06 5.784e-05
54 1 0.183591 9.11133 6.92172 5.69521e-05 1.55602e-05 -5.52537e-05 8.08618e-05
55 1 9.11739 8.68176 6.79268 -2.45017e-06 1.43553e-05 -3.44405e-05 3.73929e-05
56 1 10.0035 6.65105 12.5062 1.68084e-05 -3.87801e-05 -1.32226e-05 4.4286e-05
57 1 0.149435 11.6826 3.52076 2.23266e-05 -5.1066e-06 7.75105e-06 2.41792e-05
58 1 10.3663 10.1582 5.15399 2.73563e-05 -4.66841e-05 -4.06358e-05 6.76686e-05
59 1 10.2432 8.24333 8.80179 3.26463e-05 2.33282e-05 2.98609e-06 4.02356e-05
60 1 9.55317 2.53429 9.05387 -8.62727e-07 -6.48466e-06 -1.75279e-05 1.87089e-05
61 1 10.8182 4.13464 7.44468 -2.70594e-05 7.23138e-07 -1.71107e-06 2.71231e-05
62 1 9.84642 1.92174 6.71543 -5.96103e-05 3.12085e-05 -5.29615e-06 6.74937e-05
63 1 7.91129 9.704 5.03802 2.47176e-06 1.58872e-05 8.89613e-06 1.83753e-05
64 1 6.64146 8.25336 6.66255 -7.61097e-07 1.0126e-05 1.09639e-05 1.4944e-05
65 1 9.93975 8.80469 11.1164 -3.1585e-05 9.71076e-06 -2.35403e-05 4.05717e-05
66 1 7.54876 6.19175 12.3523 -7.89163e-05 -3.95135e-05 -7.12549e-05 0.00011343
67 1 9.10897 11.227 3.43313 -2.93208e-06 5.35919e-05 4.60919e-05 7.07471e-05
68 1 6.72517 10.7469 3.28325 6.40561e-05 3.52947e-05 -8.47895e-06 7.3626e-05
69 1 10.0965 10.7586 7.58782 6.61186e-05 -6.81232e-06 4.19321e-05 7.85899e-05
70 1 8.70558 10.1037 9.50834 -1.60515e-05 3.66879e-05 2.32009e-05 4.6281e-05
71 1 10.8678 11.0953 11.9336 -4.95214e-05 1.90966e-05 6.45134e-06 5.34665e-05
72 1 9.63349 0.306137 10.3748 8.68738e-05 2.37442e-05 3.52874e-05 9.67267e-05
73 1 1.64094 0.878695 1.97731 1.37274e-06 -9.40199e-05 -3.56179e-05 0.00010055
74 1 11.3579 0.194447 6.02683 4.2854e-05 -2.15712e-06 3.05455e-05 5.26702e-05
75 1 11.0717 0.781348 8.41658 2.90628e-05 -3.83875e-05 -1.42716e-06 4.81693e-05
76 1 9.4417 0.875456 12.7059 -1.49556e-05 -5.56706e-05 -3.21275e-05 6.59929e-05
77 1 10.2502 3.20897 0.677085 -6.41599e-05 -3.50583e-05 3.16173e-05 7.9657e-05
78 1 10.0977 1.19019 4.31457 -5.30577e-05 5.83355e-05 1.77734e-05 8.08334e-05
79 1 11.1271 3.24144 4.9989 1.99015e-05 1.14679e-06 -4.18426e-05 4.63485e-05
80 1 9.33254 10.9122 1.15696 1.34041e-05 -3.67965e-05 -3.50173e-05 5.25344e-05
81 1 6.94812 7.5239 4.25862 5.32435e-06 1.75339e-06 -1.40583e-05 1.51347e-05
82 1 4.76093 6.38821 1.71741 -4.21111e-06 -1.24847e-05 3.07514e-05 3.34552e-05
83 1 6.04244 7.94062 0.138346 -5.17054e-05 2.0384e-05 7.06819e-06 5.6026e-05
84 1 2.65564 9.51588 7.10229 4.28887e-05 -1.15738e-05 -4.8994e-05 6.61348e-05
85 1 1.28992 8.7037 8.96291 4.892e-05 -2.48065e-05 2.50054e-05 6.02811e-05
86 1 3.42735 9.78356 11.4979 -4.73111e-05 -2.05932e-05 2.59753e-05 5.77679e-05
87 1 1.41162 10.5712 5.31563 -2.91731e-07 2.73021e-05 1.68626e-05 3.20911e-05
88 1 2.20423 11.0339 9.85294 2.80089e-05 1.65081e-05 4.3513e-05 5.43176e-05
89 1 4.41616 0.017158 12.3526 1.45696e-05 -3.70137e-05 -6.38556e-06 4.02873e-05
90 1 5.17796 0.256247 3.95939 -4.38465e-05 2.31812e-05 3.67392e-05 6.17224e-05
91 1 0.360922 11.1391 1.24578 1.3965e-05 -4.72879e-05 -1.97256e-06 4.93463e-05
92 1 3.65433 11.6002 7.9456 3.36528e-05 1.09907e-06 -5.80798e-06 3.4168e-05
93 1 2.90554 1.87034 0.171112 -6.49269e-05 -8.01463e-05 5.42981e-06 0.000103288
94 1 4.05364 1.21763 2.12283 2.40362e-05 -9.4038e-05 2.63167e-05 0.000100566
95 1 3.70959 1.96754 4.55006 2.22004e-05 1.69472e-05 1.59819e-05 3.2179e-05
96 1 2.43674 0.602415 6.19635 -1.07922e-05 1.73026e-05 1.88007e-05 2.77366e-05
97 1 3.41253 2.79226 6.99269 6.16701e-05 -1.11169e-05 5.3959e-06 6.28959e-05
98 1 2.14871 1.22245 8.56518 2.48377e-05 2.33772e-05 -2.48465e-05 4.2199e-05
99 1 4.13699 3.48336 11.4697 -2.12254e-05 -4.63938e-05 -2.33273e-05 5.60987e-05
100 1 3.16685 1.2199 10.6866 1.88608e-05 -1.13195e-05 -4.51236e-06 2.24549e-05
101 1 0.0556603 7.00289 10.4978 -4.17414e-05 2.20825e-05 6.10979e-06 4.76163e-05
102 1 0.982869 9.28097 11.2804 2.14837e-05 -3.51561e-05 -2.18303e-06 4.12585e-05
103 1 0.439032 8.38862 4.53554 4.12453e-06 -4.81512e-06 -5.87633e-07 6.3673e-06
104 1 2.71211 11.9485 3.78374 1.55051e-05 -4.60889e-05 1.65248e-05 5.13582e-05
105 1 1.17693 11.1855 7.74347 3.45939e-06 3.46229e-05 1.10234e-05 3.64997e-05
106 1 0.691245 0.775084 10.5395 -1.51019e-05 9.67921e-06 -1.17685e-05 2.14535e-05
107 1 1.30762 3.62173 0.836771 -2.47084e-05 -8.46315e-05 -4.13241e-05 9.73688e-05
108 1 1.24511 1.58552 4.38988 -6.2477e-06 2.97423e-05 7.32753e-05 7.93278e-05
109 1 0.937694 2.35949 6.83104 3.47706e-05 -7.79832e-07 -8.10047e-05 8.81553e-05
110 1 1.64298 3.03982 11.3163 1.84125e-05 1.72664e-05 1.42615e-05 2.8992e-05
111 1 2.57455 5.28198 12.0628 1.46499e-05 -2.62608e-05 1.0254e-05 3.1771e-05
112 1 0.960084 4.46856 3.24446 4.63882e-05 -1.87075e-05 -4.16202e-06 5.01912e-05
113 1 1.90161 4.58355 7.58175 -1.99212e-05 4.70449e-05 -6.22307e-06 5.14666e-05
114 1 0.632501 2.97638 9.17588 8.93469e-06 4.77356e-05 -1.15636e-05 4.99223e-05
115 1 1.02108 7.10029 12.6591 4.55409e-07 -6.16582e-06 -1.30151e-06 6.31812e-06
116 1 1.94941 6.64437 3.9513 2.89685e-05 -2.74925e-05 2.91839e-05 4.94642e-05
117 1 0.702332 5.33673 5.68246 -5.64087e-06 1.32148e-05 4.70848e-05 4.92283e-05
118 1 0.373789 6.3925 8.18373 -1.92909e-06 -3.55804e-05 -5.92869e-05 6.9171e-05
119 1 1.91295 9.27796 0.606938 -4.39998e-05 -1.3201e-05 -4.04342e-05 6.11978e-05
120 1 0.702785 7.68219 2.16856 -1.87556e-05 -1.12711e-05 -2.1363e-05 3.05809e-05
121 1 3.83423 4.13746 0.970177 -1.60519e-05 -2.27584e-05 -4.4616e-05 5.25947e-05
122 1 2.5738 2.91732 2.69956 -3.28436e-05 9.30845e-05 4.34858e-05 0.000107863
123 1 3.54191 4.98339 3.37814 3.99654e-05 9.51406e-06 -7.39426e-06 4.17423e-05
124 1 2.2208 3.67696 5.12154 3.52395e-05 -1.14396e-05 -4.67446e-05 5.96468e-05
125 1 7.02302 0.380993 12.723 -3.42772e-05 2.77662e-05 5.27575e-05 6.87695e-05
126 1 7.64883 0.744001 4.18067 0.000189343 -7.80897e-05 4.87014e-05 0.000210524
127 1 6.13383 12.0131 8.14831 3.35276e-05 1.38835e-05 4.04521e-05 5.43435e-05
128 1 5.67555 1.63845 10.9255 1.11218e-05 -3.20355e-05 1.37932e-05 3.6609e-05
129 1 5.40347 2.3076 0.391575 -1.94055e-05 -1.15675e-05 4.09302e-05 4.67511e-05
130 1 6.64248 1.34166 2.19098 -3.1424e-05 -4.34368e-05 2.86265e-05 6.07758e-05
131 1 6.15182 2.38764 4.72132 -0.000116506 6.70819e-05 -3.00909e-05 0.000137765
132 1 4.90615 1.02759 6.39419 -2.71917e-05 3.1228e-05 1.77877e-05 4.50664e-05
133 1 5.87131 3.24831 7.1608 4.13702e-07 -3.04527e-06 8.09521e-06 8.65894e-06
134 1 4.63818 1.66105 8.76404 -2.10566e-05 2.97446e-05 -6.27316e-07 3.64488e-05
135 1 6.60544 3.9367 11.6362 2.31211e-05 -2.54699e-05 4.21371e-05 5.43952e-05
136 1 6.31566 4.59451 1.13283 -2.20207e-05 -1.44713e-05 1.2408e-05 2.91254e-05
137 1 5.1021 3.21959 2.79211 3.56967e-05 -5.41163e-07 3.93352e-05 5.31206e-05
138 1 6.01475 5.34704 3.5044 -7.74985e-06 4.73044e-05 1.38219e-06 4.79549e-05
139 1 4.67445 4.08276 5.26382 0.000107137 -5.92924e-05 -8.13309e-06 0.000122719
140 1 6.82171 5.51894 7.89608 -1.86589e-05 1.38189e-05 -2.44256e-05 3.37005e-05
141 1 5.57674 3.88077 9.49425 -3.38534e-06 -2.36566e-05 -3.28201e-06 2.41219e-05
142 1 4.68008 11.475 10.0533 -3.16374e-06 -3.40872e-05 1.41791e-06 3.42631e-05
143 1 11.164 10.5549 9.64537 8.0842e-06 2.96011e-05 -6.09792e-05 6.82645e-05
144 1 3.92013 10.9542 5.56016 6.89725e-06 2.58244e-05 1.96155e-05 3.31547e-05
145 1 3.73895 9.18633 9.17639 -4.41351e-06 1.18469e-05 -8.02369e-06 1.49736e-05
146 1 4.36387 5.05068 7.73906 6.64961e-05 6.17705e-05 -6.49808e-06 9.0992e-05
147 1 3.10922 3.42685 9.33041 -2.79089e-05 -2.24696e-06 -4.08328e-05 4.95104e-05
148 1 3.48039 7.48396 12.8019 -3.42809e-05 2.07017e-05 2.44148e-05 4.69022e-05
149 1 2.24116 5.88436 1.57554 -1.66626e-05 -9.5891e-06 -3.97202e-05 4.41281e-05
150 1 4.47222 7.12542 4.09314 -1.37848e-05 7.12824e-05 -4.27314e-05 8.42447e-05
151 1 3.18264 5.77803 5.80733 -3.67655e-06 1.62231e-05 3.49389e-06 1.69974e-05
152 1 2.8373 6.86993 8.33639 3.05079e-06 -2.71904e-05 -2.07314e-05 3.43281e-05
153 1 1.58371 5.20776 9.91072 1.15954e-05 -5.20783e-05 -6.20204e-06 5.37128e-05
154 1 4.46133 9.5481 0.753329 -2.22508e-05 -5.01831e-05 5.40053e-06 5.51598e-05
155 1 3.16703 8.10211 2.3287 -1.63397e-05 2.102e-05 1.3767e-07 2.66242e-05
156 1 2.90598 8.81766 4.70841 1.29645e-05 2.97185e-05 -3.96917e-05 5.12514e-05
157 1 1.66998 7.43538 6.36202 1.98049e-05 -1.65399e-05 -4.76552e-06 2.62395e-05
158 1 4.96909 7.95508 10.8531 -1.75367e-05 -1.17124e-05 7.61435e-07 2.1102e-05
159 1 2.50736 7.47438 10.6585 2.1051e-05 3.30044e-05 2.12578e-05 4.45458e-05
160 1 2.99544 11.2505 1.37624 -5.63358e-07 0.000113664 6.67217e-06 0.000113861
161 1 1.63734 9.8816 2.94033 1.02752e-05 1.15421e-05 -2.73086e-05 3.13777e-05
162 1 5.14771 9.90954 7.31318 -3.90981e-05 -7.08965e-06 3.88659e-05 5.55831e-05
163 1 5.91911 10.2392 11.707 -1.55646e-05 -3.02622e-05 6.90753e-06 3.47242e-05
164 1 1.9173 11.6309 12.1726 -5.38141e-05 -4.2941e-05 1.41083e-05 7.02775e-05
