ITEM: TIMESTEP
0
ITEM: NUMBER OF ATOMS
139
ITEM: BOX BOUNDS pp pp pp
0.0000000000000000e+00 1.1396901000000000e+01
0.0000000000000000e+00 1.2680864000000000e+01
0.0000000000000000e+00 1.2228524999999999e+01
ITEM: ATOMS id type x y z fx fy fz v_fmag
1 1 1.17461 12.3187 1.95384 1.16423e-06 1.86075e-05 -7.5743e-06 2.01237e-05
2 1 8.17033 11.2087 11.3456 1.28735e-06 1.65239e-05 2.4053e-05 2.92103e-05
3 1 8.28144 11.4356 6.78942 -8.00032e-06 1.61794e-05 -5.61912e-06 1.89038e-05
4 1 7.72616 11.5062 3.64866 3.5062e-05 -2.50899e-05 7.71687e-06 4.37995e-05
5 1 6.46641 9.21611 11.3995 1.08693e-05 7.76029e-06 1.6385e-05 2.11384e-05
6 1 9.23976 11.6139 9.19321 -4.74988e-05 -1.56066e-05 2.88502e-06 5.00802e-05
7 1 7.7753 8.89432 7.31409 -3.11544e-05 3.02731e-06 2.93034e-05 4.28771e-05
8 1 8.92065 9.50807 5.0716 4.41697e-05 -9.87535e-06 3.80985e-05 5.91606e-05
9 1 9.11754 9.72844 2.52818 -2.69417e-05 -3.12503e-05 2.68232e-05 4.92131e-05
10 1 10.7307 10.9328 0.934642 -3.8141e-05 2.86252e-05 3.35564e-05 5.8311e-05
11 1 5.84364 6.63179 11.5978 -5.80953e-05 -1.09352e-05 2.02233e-05 6.2479e-05
12 1 6.79079 7.7069 9.42987 -2.85419e-06 -4.39414e-06 -2.67445e-06 5.88282e-06
13 1 5.39406 7.41385 7.37534 1.63632e-05 1.89242e-05 -9.65143e-06 2.68148e-05
14 1 11.3057 8.48344 5.8366 -2.03204e-06 -8.56928e-06 7.31379e-06 1.14478e-05
15 1 5.54829 7.02079 3.11516 -4.75807e-05 -1.41227e-05 -1.02794e-05 5.06857e-05
16 1 7.36375 8.02265 1.53403 -2.82214e-05 3.98869e-05 2.5948e-05 5.53237e-05
17 1 5.37755 4.10042 11.9026 2.58562e-05 -1.58374e-05 -1.99362e-05 3.6288e-05
18 1 6.77548 5.10728 9.65896 6.8773e-06 -2.3269e-05 3.81011e-06 2.45614e-05
19 1 5.69349 11.7487 11.7653 -3.4769e-06 -3.42143e-05 3.34007e-06 3.45523e-05
20 1 8.60709 12.3935 1.25011 8.97899e-05 2.99483e-05 3.2066e-05 9.99367e-05
21 1 6.77175 0.366512 5.38031 -4.11947e-05 1.39304e-05 -2.3922e-05 4.96319e-05
22 1 7.00673 0.144845 9.7712 -2.33756e-05 1.34109e-05 2.29992e-06 2.70473e-05
23 1 6.70625 2.75588 1.35378 1.66948e-05 -2.0533e-05 -1.87543e-05 3.24352e-05
24 1 5.64102 1.93247 3.68848 -2.77451e-05 -2.60462e-05 -3.03157e-05 4.86543e-05
25 1 10.6729 1.25639 1.48125 2.48124e-06 -1.83231e-05 -3.62833e-06 1.88429e-05
26 1 7.68351 2.60907 5.38363 -1.71185e-05 -1.89507e-05 2.3127e-05 3.44533e-05
27 1 6.94767 2.60422 9.6401 -2.07618e-05 -1.96449e-05 4.04566e-05 4.95349e-05
28 1 5.48533 1.5373 11.5879 2.98872e-05 -2.52955e-05 9.97916e-06 4.04065e-05
29 1 7.14695 5.44691 1.32063 -3.27188e-05 4.12774e-05 -9.12096e-06 5.34559e-05
30 1 5.41726 4.50854 3.02746 2.63552e-05 1.72873e-05 -6.12857e-05 6.89158e-05
31 1 7.00102 5.14813 5.3531 1.89194e-05 2.28569e-05 2.58654e-05 3.93625e-05
32 1 5.47406 4.81408 7.46546 -1.18197e-06 -4.07471e-06 -1.86252e-05 1.91023e-05
33 1 5.86594 2.28179 7.23745 -2.69967e-05 3.02128e-06 1.40556e-05 3.05862e-05
34 1 5.82306 12.2861 7.49973 1.0194e-05 -6.83343e-06 -1.11156e-05 1.65581e-05
35 1 9.32828 0.589053 5.24345 2.09419e-05 4.89428e-05 2.02201e-05 5.69457e-05
36 1 9.08224 3.19134 1.37987 3.50683e-05 2.5635e-05 3.70124e-06 4.35963e-05
37 1 9.98053 7.60284 7.85793 4.79917e-05 0.000121501 -4.86478e-05 0.0001394
38 1 10.2749 7.77432 3.5327 1.6159e-05 -7.86616e-06 -8.054e-06 1.96941e-05
39 1 10.1127 5.14109 11.7702 1.23636e-05 2.07033e-05 6.14966e-06 2.48857e-05
40 1 10.0678 5.11615 7.55824 1.52854e-05 -3.78928e-05 -7.41734e-05 8.46829e-05
41 1 9.96939 5.02713 2.9947 1.08474e-06 2.95901e-05 -3.45357e-05 4.54914e-05
42 1 10.2958 2.58437 11.4868 2.04717e-05 1.56925e-05 3.98826e-06 2.61008e-05
43 1 10.0151 2.47879 6.90392 1.23578e-05 3.46903e-05 5.40851e-05 6.54318e-05
44 1 10.0035 2.56082 3.73251 1.33137e-05 3.79873e-06 -2.8641e-05 3.18118e-05
45 1 10.2782 12.6774 11.4318 1.62619e-05 -2.81261e-05 1.08184e-05 3.42428e-05
46 1 10.5159 12.6736 7.39119 -2.25477e-05 3.37038e-05 2.9377e-05 5.00735e-05
47 1 10.1242 12.1385 3.17309 7.24221e-06 -8.16268e-07 1.97018e-05 2.10066e-05
48 1 9.14922 9.17586 0.0862349 4.07123e-05 5.11502e-05 -1.88785e-06 6.54019e-05
49 1 10.1424 10.0182 7.55183 2.42295e-05 -8.90292e-06 1.03167e-05 2.77987e-05
50 1 0.257027 10.203 3.26001 -2.42569e-05 -4.33234e-05 2.59483e-05 5.60235e-05
51 1 8.17444 7.00523 11.6174 3.58356e-05 1.93587e-05 -0.000151022 0.000156418
52 1 8.93637 8.98083 9.74356 -2.47274e-05 -2.3288e-05 -1.72309e-06 3.40109e-05
53 1 7.65284 6.3263 7.46161 -2.01421e-05 -3.18961e-07 -1.46082e-05 2.48838e-05
54 1 8.0137 1.2962 3.07446 -1.9037e-05 -6.834e-06 2.44461e-05 3.17289e-05
55 1 9.49965 4.40688 5.31955 4.01113e-05 -7.07606e-05 4.07376e-05 9.09699e-05
56 1 8.00317 1.10132 7.55819 -5.96365e-06 2.03789e-05 2.56139e-05 3.32707e-05
57 1 0.041224 2.9589 9.02393 3.87824e-06 -1.05753e-05 4.04704e-05 4.20087e-05
58 1 8.04778 1.42146 11.7581 1.91812e-05 -2.54903e-05 -8.05935e-06 3.29033e-05
59 1 7.86022 4.03822 11.6187 -2.63878e-06 -1.70203e-05 2.49053e-06 1.74028e-05
60 1 9.5121 1.36449 9.44802 -1.62086e-05 4.4701e-06 2.12047e-06 1.69469e-05
61 1 9.63436 6.80837 1.32059 -3.20949e-05 2.13697e-05 1.99759e-05 4.34256e-05
62 1 9.24159 6.89158 5.62249 1.92318e-05 -4.04787e-05 7.07893e-07 4.48207e-05
63 1 7.86051 3.82272 7.52741 2.38754e-05 -5.53758e-06 4.94692e-05 5.52078e-05
64 1 8.9939 6.2523 9.56607 -0.000128951 2.00477e-05 0.00018591 0.00022714
65 1 9.22683 3.83402 9.58377 -5.97165e-06 -8.09615e-06 -7.77225e-06 1.27128e-05
66 1 0.0334527 8.49054 1.22708 -2.78136e-05 -2.02354e-05 1.99484e-05 3.97619e-05
67 1 8.02931 6.53265 3.44309 1.89647e-06 -9.70204e-07 -9.46676e-06 9.70347e-06
68 1 7.76867 3.91728 3.33504 2.56227e-05 1.13734e-05 -2.13028e-05 3.52092e-05
69 1 10.6738 7.65321 10.9572 -2.17168e-05 -1.21409e-05 -1.32316e-06 2.49153e-05
70 1 5.16656 11.932 3.8917 -2.37783e-05 -3.79502e-05 -2.03286e-05 4.91821e-05
71 1 7.00848 10.4085 9.15118 3.03248e-05 -2.4833e-05 2.7092e-05 4.76471e-05
72 1 4.5459 10.8307 1.77075 -1.34958e-05 -3.35709e-05 -1.49862e-05 3.91628e-05
73 1 1.06858 6.26147 11.9763 3.45489e-06 -1.42443e-05 -1.95204e-05 2.44107e-05
74 1 2.12733 7.02431 9.57836 3.1e-05 4.19887e-05 -8.92598e-06 5.29502e-05
75 1 0.835683 6.52593 7.37145 -2.27098e-05 2.1896e-05 -2.28043e-05 3.89257e-05
76 1 4.48067 8.74893 5.44868 3.02282e-05 1.35315e-05 2.14011e-06 3.31877e-05
77 1 0.223587 6.00278 4.92276 3.51972e-05 2.02524e-05 8.44181e-06 4.14761e-05
78 1 2.47747 7.51484 1.39073 -5.03606e-05 -1.3708e-05 9.29702e-05 0.000106619
79 1 1.05312 3.81471 11.1849 9.51398e-06 -1.68501e-05 -1.05994e-05 2.20632e-05
80 1 0.012245 5.58749 9.62786 3.255e-05 1.94579e-05 6.72176e-06 3.85135e-05
81 1 0.675841 3.92828 6.69443 -6.07983e-07 1.05738e-05 4.28859e-05 4.41744e-05
82 1 2.57941 4.78644 5.49032 4.99348e-05 1.923e-05 -2.3655e-05 5.8505e-05
83 1 0.778433 3.83429 3.74612 2.71602e-05 -9.48663e-06 -3.49953e-05 4.53028e-05
84 1 0.629256 6.06407 2.25553 -2.03799e-05 3.34991e-05 -5.54332e-06 3.96013e-05
85 1 0.0338132 3.79791 1.27473 -8.96747e-06 1.15478e-06 -3.37555e-05 3.49454e-05
86 1 1.06948 1.27158 11.7439 4.27598e-05 -6.16701e-06 2.3058e-05 4.89704e-05
87 1 2.29894 2.00151 9.43824 1.18576e-05 1.00493e-05 -2.54426e-05 2.98147e-05
88 1 1.10295 1.42862 7.32355 1.55557e-05 1.64077e-05 -9.65308e-06 2.45841e-05
89 1 2.40803 7.32352 5.53273 5.96141e-05 -5.21262e-05 5.87594e-06 7.94073e-05
90 1 2.10415 9.97299 1.4519 -1.04539e-05 -2.38579e-05 -7.39335e-06 2.70766e-05
91 1 1.31165 8.06605 3.52885 -1.27499e-05 -2.25477e-05 -1.31323e-05 2.90416e-05
92 1 1.92865 9.7875 5.36366 2.7707e-05 -1.54144e-05 2.20477e-05 3.86184e-05
93 1 0.52926 8.76166 8.84963 -2.7799e-05 4.53811e-05 -4.56114e-05 7.00901e-05
94 1 2.32829 10.4818 9.57002 3.21921e-05 3.21083e-05 -1.45489e-05 4.77382e-05
95 1 3.63998 8.81286 3.21028 -4.52512e-05 -5.31097e-06 -2.60783e-05 5.24972e-05
96 1 10.9076 11.1709 5.40735 -1.91723e-05 3.79379e-05 3.69604e-05 5.63288e-05
97 1 3.42393 0.192322 0.908293 1.21147e-05 -2.24569e-05 4.03339e-06 2.58331e-05
98 1 1.81258 12.431 5.55947 -9.78418e-06 2.61984e-05 -1.74603e-05 3.29689e-05
99 1 0.638129 12.6082 9.49264 1.13402e-05 2.47301e-05 -3.82583e-06 2.74738e-05
100 1 1.75951 2.10269 1.81167 5.45841e-06 1.34036e-06 1.32572e-05 1.43994e-05
101 1 0.522834 1.05091 3.90643 -6.58094e-06 9.36514e-06 2.98815e-05 3.19988e-05
102 1 2.15841 2.29726 5.28136 -5.64138e-06 -9.35883e-06 -4.12617e-05 4.26842e-05
103 1 1.08649 10.9198 7.46815 -1.54519e-05 2.17449e-05 1.18373e-05 2.91843e-05
104 1 3.72757 10.1771 11.6931 -1.98732e-05 3.76187e-05 -1.40994e-05 4.48208e-05
105 1 3.92944 11.1677 5.98086 3.02786e-05 -4.50785e-05 3.66268e-05 6.5501e-05
106 1 4.73682 11.3112 9.53476 -3.08527e-05 3.91993e-05 2.20782e-05 5.4552e-05
107 1 5.20153 9.82722 7.59692 2.43848e-05 -1.39982e-05 -0.000103453 0.000107206
108 1 6.43238 10.4295 5.57951 -3.6368e-05 -7.59023e-07 5.30636e-05 6.43347e-05
109 1 6.16328 9.43281 3.35718 -1.41825e-05 2.25498e-05 -2.51234e-05 3.66173e-05
110 1 7.01071 10.5095 1.29515 -1.28837e-05 2.58004e-05 4.48474e-05 5.33192e-05
111 1 3.56157 7.54397 11.5054 6.57632e-05 2.35955e-05 -9.44626e-05 0.000117493
112 1 4.44799 8.78273 9.64769 -4.61494e-05 -5.71586e-06 6.01344e-05 7.6017e-05
113 1 3.29346 6.0789 7.45011 -1.33375e-05 -4.80511e-05 -4.17952e-05 6.50664e-05
114 1 6.8399 7.7962 5.2594 2.1371e-05 -2.09819e-05 -6.80726e-06 3.07132e-05
115 1 3.01933 6.05458 3.35165 4.52064e-06 -1.4893e-05 8.64689e-07 1.5588e-05
116 1 4.96008 8.48352 1.08236 -2.00618e-06 -1.97795e-07 -3.60996e-07 2.04797e-06
117 1 3.18808 5.11675 11.1674 1.42203e-05 -6.60492e-06 4.35351e-06 1.62725e-05
118 1 4.58852 6.24997 9.48792 -1.15829e-05 3.00082e-05 2.04241e-05 3.81024e-05
119 1 2.11541 4.48971 8.88896 -2.25246e-05 6.34352e-06 -2.27607e-06 2.35113e-05
120 1 4.71564 6.14689 5.27473 2.18208e-05 -1.74385e-05 -1.65499e-05 3.24676e-05
121 1 3.22523 3.50171 3.44443 3.01777e-05 -4.414e-05 -2.48199e-05 5.89496e-05
122 1 4.42133 5.88848 1.19022 -2.64485e-05 5.50938e-06 -1.893e-05 3.29883e-05
123 1 2.42904 4.47368 1.2422 -1.45763e-05 -1.42891e-05 1.99431e-06 2.05091e-05
124 1 1.46751 8.87093 11.3785 -3.68453e-05 2.38571e-06 -1.53631e-05 3.99911e-05
125 1 2.75166 11.1817 3.5547 -5.22033e-05 -2.5311e-05 2.58712e-06 5.80734e-05
126 1 3.02303 12.5354 7.96583 -1.4756e-05 -1.32338e-07 1.21248e-05 1.90989e-05
127 1 3.17575 0.0686361 10.7137 1.34533e-06 -3.72004e-05 -7.91817e-06 3.80576e-05
128 1 1.38515 11.4525 11.7868 -7.22976e-05 -1.17289e-05 -6.00164e-07 7.32453e-05
129 1 6.03632 0.307231 1.70959 -8.48214e-07 -2.42822e-05 -2.87108e-06 2.44661e-05
130 1 2.82328 8.74779 7.60687 3.30733e-05 2.61321e-05 -7.73243e-06 4.28547e-05
131 1 4.24698 0.974636 5.81513 -6.08893e-06 1.07383e-05 -2.61852e-05 2.89491e-05
132 1 4.32677 2.47665 1.55681 2.69498e-05 2.29945e-06 -4.30484e-05 5.08404e-05
133 1 3.25451 0.909792 3.42521 -2.82364e-05 -4.91541e-05 1.36761e-05 5.83134e-05
134 1 4.88068 3.57586 5.35152 6.20539e-05 -1.56387e-05 -5.2481e-05 8.27618e-05
135 1 3.38289 2.97263 7.34396 4.87611e-06 3.69397e-06 -9.77874e-06 1.15345e-05
136 1 4.52743 3.64975 9.54904 -1.94693e-05 2.04625e-05 -2.64372e-05 3.86871e-05
137 1 3.21447 2.59358 11.6415 3.24332e-05 -1.7773e-05 -4.55444e-05 5.86693e-05
138 1 4.75121 1.22033 9.16682 2.1944e-05 8.64187e-06 3.44916e-05 4.17839e-05
139 1 10.8995 10.322 10.576 -4.03884e-05 -2.27082e-05 1.1906e-05 4.78398e-05
