ITEM: TIMESTEP
0
ITEM: NUMBER OF ATOMS
143
ITEM: BOX BOUNDS pp pp pp
0.0000000000000000e+00 1.1400361000000000e+01
0.0000000000000000e+00 1.2098903999999999e+01
0.0000000000000000e+00 1.2816801000000000e+01
ITEM: ATOMS id type x y z fx fy fz v_fmag
1 1 1.81774 0.795446 11.6137 2.28791e-05 2.23656e-05 2.75162e-06 3.2113e-05
2 1 6.89142 9.98317 8.32893 3.17282e-06 -2.42174e-05 -4.93012e-06 2.49169e-05
3 1 5.33489 8.70189 9.7448 6.21466e-07 -3.06851e-05 1.42341e-05 3.38315e-05
4 1 6.51472 9.70099 11.897 -3.28974e-07 -2.10483e-05 -3.68698e-05 4.24561e-05
5 1 7.30675 10.3313 4.76484 -3.1687e-06 6.02987e-06 8.48669e-06 1.08823e-05
6 1 8.43258 11.2968 6.94783 -2.58356e-05 -1.21814e-05 4.20334e-05 5.082e-05
7 1 5.63627 11.3496 10.1069 -6.0388e-05 2.09814e-05 -1.70358e-05 6.616e-05
8 1 5.74363 9.01058 6.16045 -9.53133e-06 -1.46252e-05 2.46891e-05 3.02373e-05
9 1 5.20028 10.9916 0.9103 -2.55636e-05 -1.41762e-05 1.11189e-05 3.12744e-05
10 1 0.267847 11.6391 0.199781 -5.00152e-06 2.20661e-05 1.91638e-05 2.96509e-05
11 1 9.52242 2.55942 0.209904 2.46666e-05 -3.38153e-05 4.57183e-05 6.19845e-05
12 1 7.93276 1.22935 1.65459 -2.09148e-05 1.56038e-05 -2.23615e-05 3.43648e-05
13 1 9.05417 2.19083 3.84044 -3.4408e-05 1.31367e-05 1.28055e-05 3.89931e-05
14 1 7.51852 0.852857 5.21452 1.29526e-07 -1.9843e-05 -3.24666e-05 3.80505e-05
15 1 8.60093 1.76683 7.45887 7.58915e-07 2.51638e-05 -3.31414e-05 4.16191e-05
16 1 8.87758 11.6572 3.39926 -1.09015e-05 -7.59741e-05 3.58844e-05 8.47266e-05
17 1 9.55363 0.17455 9.11476 -1.17264e-05 -4.26554e-05 2.84104e-05 5.25751e-05
18 1 8.60903 9.00461 2.93793 -4.04132e-05 -1.26422e-05 1.28351e-05 4.42469e-05
19 1 6.27342 7.07079 11.4699 -3.64793e-05 -6.52686e-06 3.60256e-05 5.16835e-05
20 1 5.82394 1.81525 10.5745 -1.66526e-05 -3.95946e-05 2.88178e-05 5.17253e-05
21 1 8.27484 1.49057 10.921 1.66912e-05 -1.37207e-05 -3.51154e-05 4.12304e-05
22 1 7.23571 5.43003 0.350561 -3.3468e-05 -1.80221e-05 2.47672e-05 4.53686e-05
23 1 5.68696 4.11463 1.7376 2.80265e-05 3.74173e-05 -2.61702e-05 5.35763e-05
24 1 6.84721 5.10746 3.90201 2.27894e-05 -3.14172e-05 1.02506e-06 3.88259e-05
25 1 5.28753 3.7951 5.32071 4.84338e-06 -1.75868e-06 2.63387e-06 5.78693e-06
26 1 7.46491 8.06079 0.788399 -6.44885e-06 -2.54177e-05 -2.20556e-05 3.42651e-05
27 1 6.42338 4.78029 7.49122 -2.33191e-05 -1.21498e-05 7.58685e-06 2.73671e-05
28 1 6.04278 4.44083 11.0373 8.27818e-06 2.06288e-05 -5.01714e-06 2.2787e-05
29 1 5.92239 6.73305 2.16883 1.18799e-05 2.57252e-05 1.20822e-05 3.08041e-05
30 1 7.06348 7.70267 4.33507 8.05198e-06 2.52164e-05 5.65494e-08 2.64708e-05
31 1 5.51055 6.40185 5.74064 -1.93603e-05 -1.58858e-05 -1.16568e-05 2.76236e-05
32 1 6.65868 7.40012 7.91125 -6.12225e-06 -2.71302e-05 1.49094e-05 3.15566e-05
33 1 5.09831 6.08572 9.31919 4.21147e-06 -3.26338e-05 1.84183e-05 3.77086e-05
34 1 4.87809 3.47167 8.87712 2.66251e-05 1.58046e-05 -2.25615e-05 3.83106e-05
35 1 6.19846 2.14119 7.07189 5.18731e-05 -1.0523e-05 -5.40454e-06 5.32049e-05
36 1 10.7491 1.1485 11.2626 -3.85097e-06 -1.32629e-06 2.50659e-05 2.53947e-05
37 1 8.18411 3.83408 2.0498 1.06808e-05 1.50104e-05 8.53111e-08 1.84228e-05
38 1 10.8956 10.969 7.30946 -1.17009e-05 -1.02084e-06 -1.53463e-05 1.93252e-05
39 1 8.04525 10.9963 10.4956 2.83459e-05 1.18661e-05 -9.08976e-06 3.20456e-05
40 1 7.68012 10.6822 1.25229 5.59149e-06 1.66835e-05 -2.97353e-05 3.45513e-05
41 1 10.3627 0.874861 2.02094 4.10944e-05 2.47489e-05 -1.35417e-05 4.98461e-05
42 1 9.97434 0.530476 5.58056 -1.64078e-05 -4.28836e-06 -8.91876e-06 1.91612e-05
43 1 11.1152 1.48511 7.75212 6.94388e-05 3.24904e-05 -7.17981e-06 7.69995e-05
44 1 9.81363 10.062 5.06907 -4.23834e-05 6.60956e-06 2.87264e-06 4.29918e-05
45 1 10.6045 3.48306 2.44278 7.11715e-06 4.16305e-06 -2.3581e-05 2.49809e-05
46 1 9.82943 2.81452 9.56531 -1.92301e-05 -1.90361e-05 1.32078e-05 3.01101e-05
47 1 10.8369 6.08092 2.8684 2.37573e-05 4.68061e-05 2.09262e-06 5.25319e-05
48 1 10.435 5.75051 6.44424 -1.50473e-05 -4.06987e-05 7.88186e-06 4.41013e-05
49 1 10.0364 5.42703 9.99714 -2.98733e-05 -4.9415e-05 -8.18637e-06 5.83204e-05
50 1 10.6699 8.36717 6.85386 -1.91867e-05 -3.36218e-05 8.97444e-06 3.97379e-05
51 1 10.2711 8.04091 10.4395 -5.99899e-06 1.69649e-06 2.52244e-05 2.59834e-05
52 1 10.18 3.11704 6.04568 1.11022e-05 -1.57591e-05 -1.43615e-05 2.40388e-05
53 1 9.77925 5.17421 0.605597 3.39248e-05 1.15649e-05 3.47183e-05 4.98998e-05
54 1 9.00225 9.39492 12.2467 3.01347e-06 -1.76812e-06 1.53955e-05 1.5787e-05
55 1 9.36034 9.65785 8.69052 -5.11927e-05 -1.55472e-05 3.45089e-05 6.36653e-05
56 1 9.28896 4.77948 4.2752 -2.18816e-05 1.15087e-05 -6.87127e-06 2.56606e-05
57 1 7.73992 3.46144 5.68185 4.83186e-05 -5.61934e-05 -1.06937e-06 7.41183e-05
58 1 8.89202 4.44692 7.83845 5.62489e-06 -3.72711e-05 -1.92304e-06 3.77422e-05
59 1 7.35255 3.15695 9.22481 1.15471e-05 -3.10427e-05 -1.54262e-05 3.6537e-05
60 1 8.53704 4.11652 11.3619 4.777e-06 7.91645e-06 -3.5958e-05 3.71277e-05
61 1 8.41978 6.42659 2.47094 3.31648e-05 3.04069e-06 -4.60666e-06 3.3621e-05
62 1 7.80974 8.38265 10.0886 2.57321e-05 1.18812e-05 -2.74543e-05 3.94594e-05
63 1 9.51915 7.38641 4.69684 -3.00994e-05 -1.33761e-05 -3.58357e-05 4.86733e-05
64 1 9.1238 7.07002 8.26229 2.15245e-05 2.1481e-05 -1.60498e-05 3.43851e-05
65 1 7.57463 5.76526 9.65171 1.59948e-05 -4.9692e-05 -2.76444e-06 5.22759e-05
66 1 8.75705 6.75271 11.7956 9.88985e-06 -2.41678e-05 -2.98102e-05 3.963e-05
67 1 10.004 7.77952 1.04041 1.63906e-05 2.09181e-05 -1.13406e-05 2.88934e-05
68 1 11.0617 8.66669 3.30434 4.52716e-06 6.25397e-05 -1.61285e-06 6.27241e-05
69 1 8.22776 8.71428 6.48942 -1.10174e-06 -2.49252e-05 2.27419e-05 3.37591e-05
70 1 7.97242 6.08472 6.09759 9.68654e-06 -2.3662e-05 -4.02655e-05 4.76972e-05
71 1 10.5093 10.6503 10.8569 -3.53479e-05 -8.79699e-06 3.05119e-05 4.75167e-05
72 1 5.05885 1.18699 4.88482 -1.45869e-05 -1.76962e-07 -3.14198e-05 3.46412e-05
73 1 5.43536 1.5019 1.32997 1.23002e-05 2.79668e-05 -1.05132e-05 3.23104e-05
74 1 0.980146 7.37766 1.47802 -1.45183e-05 2.15169e-05 2.58014e-05 3.65988e-05
75 1 2.12528 8.33589 3.64766 -4.87387e-05 -4.86783e-06 -6.08796e-06 4.93581e-05
76 1 0.582085 7.04046 5.04219 1.8364e-05 3.38662e-05 -4.02117e-05 5.56879e-05
77 1 1.72894 8.02002 7.21133 -4.50867e-05 1.66088e-05 -1.13762e-05 4.9377e-05
78 1 0.182104 6.7196 8.61431 3.5284e-05 1.64468e-05 -5.27577e-05 6.55655e-05
79 1 1.24451 7.63492 10.8815 3.62779e-05 -2.51938e-05 -1.31854e-05 4.60942e-05
80 1 1.01213 5.0268 10.4457 2.62839e-05 3.64648e-06 3.08516e-05 4.06935e-05
81 1 2.48423 8.7123 0.1315 3.07992e-05 -3.15862e-05 -1.24848e-05 4.58492e-05
82 1 0.811021 9.66414 5.46274 -2.14138e-05 -1.05318e-07 -4.42452e-06 2.18663e-05
83 1 1.95833 10.6236 7.64167 -6.17892e-05 6.00956e-06 3.07553e-05 6.92813e-05
84 1 0.416468 9.31208 9.03695 6.93e-05 5.80405e-07 -5.07498e-05 8.58974e-05
85 1 1.51024 10.2445 11.2579 1.54301e-05 -1.88281e-05 5.57764e-05 6.08571e-05
86 1 2.31193 10.9737 4.09648 9.28626e-06 1.04503e-05 -1.75434e-05 2.24325e-05
87 1 3.50577 11.9524 6.26158 -1.9507e-05 -1.31006e-05 -3.97394e-05 4.61667e-05
88 1 3.65721 9.67494 2.28862 -1.61588e-05 3.19614e-05 -4.83624e-05 6.01794e-05
89 1 0.647027 11.9257 9.46268 2.80996e-05 8.10079e-06 2.04546e-05 3.56876e-05
90 1 11.3595 4.11951 8.17542 4.27467e-06 2.94914e-05 5.10961e-06 3.02345e-05
91 1 0.341463 4.42923 4.62867 1.90251e-05 -7.0102e-06 -1.19024e-05 2.35109e-05
92 1 1.18484 9.99701 1.94473 -2.78832e-05 -1.78129e-05 -2.51482e-05 4.15596e-05
93 1 1.03315 0.183735 5.91804 -2.16985e-05 1.58347e-05 -6.87214e-06 2.7727e-05
94 1 1.35349 0.459853 2.43521 -4.60925e-05 2.07077e-05 4.54322e-06 5.07343e-05
95 1 2.19862 1.14789 8.09036 1.58877e-05 -3.31349e-06 -2.02517e-05 2.59524e-05
96 1 4.283 0.504157 11.9706 1.97698e-05 2.2718e-05 -1.06552e-05 3.1945e-05
97 1 0.509629 2.12667 0.626347 -4.649e-05 -2.83461e-05 5.58213e-05 7.79797e-05
98 1 1.50261 5.42113 6.78936 -1.68152e-05 -1.74105e-05 6.36589e-06 2.5028e-05
99 1 1.65763 3.11435 2.79408 -2.92667e-05 2.71721e-05 1.29807e-05 4.19924e-05
100 1 1.26654 2.80242 6.37239 -8.77059e-06 -1.38333e-05 9.502e-06 1.89359e-05
101 1 0.880064 2.45951 9.90482 2.63524e-05 -1.0456e-05 1.79106e-05 3.35346e-05
102 1 2.01261 3.40737 12.0599 2.96952e-05 4.27078e-05 6.08935e-08 5.20169e-05
103 1 2.25941 6.05495 12.5099 3.57387e-05 -6.83783e-06 2.68056e-06 3.64855e-05
104 1 0.749868 4.75144 1.04638 1.49494e-05 4.21688e-05 7.88122e-06 4.54292e-05
105 1 1.89135 5.72522 3.21272 2.27128e-05 2.63677e-05 1.64543e-05 3.84951e-05
106 1 0.109149 1.84641 4.20597 1.18321e-05 1.58967e-06 -9.20987e-06 1.5078e-05
107 1 6.60984 2.513 3.47901 5.50322e-06 -2.10467e-05 1.03395e-05 2.40864e-05
108 1 3.8798 0.1933 2.73301 -1.16429e-05 -1.34779e-05 3.49404e-05 3.92179e-05
109 1 6.74225 0.198693 12.3384 -8.31355e-05 -6.79208e-06 -1.13376e-05 8.41795e-05
110 1 3.78255 7.39004 11.1423 -7.22744e-06 2.10053e-05 2.58171e-05 3.40585e-05
111 1 4.96797 8.38152 0.459876 4.56485e-05 3.79727e-06 -5.8317e-06 4.61759e-05
112 1 6.13658 9.3534 2.61941 -1.07752e-05 -6.20823e-06 1.54579e-05 1.98391e-05
113 1 3.27538 9.33021 5.81177 7.7447e-06 2.31722e-05 4.42736e-05 5.05676e-05
114 1 4.40788 10.2887 7.99443 -2.2997e-05 -2.94125e-05 -1.90734e-05 4.19256e-05
115 1 2.83929 8.9715 9.42637 9.07283e-06 1.20058e-05 -7.01639e-06 1.66038e-05
116 1 2.60157 6.38044 9.01657 -3.21863e-05 -1.44084e-05 1.78248e-05 3.95131e-05
117 1 4.04588 10.0232 11.5441 4.32797e-05 1.43001e-05 -4.73969e-05 6.57578e-05
118 1 5.97271 11.6213 6.60565 1.33548e-05 2.83219e-06 7.09026e-06 1.53833e-05
119 1 3.10663 11.5814 9.81873 2.02469e-05 1.38083e-05 -1.44759e-05 2.84633e-05
120 1 2.73287 11.3151 0.569148 3.60468e-06 3.42143e-05 -3.26262e-05 4.74139e-05
121 1 6.38502 11.9901 3.05743 -2.10636e-05 -1.91819e-05 1.52522e-05 3.23149e-05
122 1 9.20665 12.0016 12.6784 -2.04941e-05 -1.14348e-05 5.19021e-06 2.40354e-05
123 1 6.99111 2.80573 12.7401 -2.17434e-05 -4.15403e-05 2.16099e-05 5.16272e-05
124 1 4.81886 10.6635 4.43727 -3.54945e-05 4.31106e-05 -4.92308e-05 7.4445e-05
125 1 4.68493 0.816313 8.43107 -1.94552e-05 -4.78938e-05 3.07628e-05 6.01554e-05
126 1 4.17796 7.69567 7.57984 4.56787e-05 5.16401e-05 -2.31869e-06 6.89827e-05
127 1 4.59564 8.02914 3.99539 -3.39503e-06 3.35551e-05 2.98136e-05 4.50147e-05
128 1 2.94523 1.78201 1.00144 -2.54403e-05 -1.91965e-05 1.96043e-05 3.74172e-05
129 1 4.13409 2.80972 3.14506 1.63518e-05 -2.665e-05 1.39921e-05 3.42546e-05
130 1 2.58733 1.50787 4.5475 -2.60447e-07 4.48435e-05 -2.49251e-05 5.13057e-05
131 1 3.73725 2.48311 6.71961 1.98624e-05 9.23796e-06 1.26795e-05 2.53106e-05
132 1 3.35032 2.12301 10.236 -1.7163e-05 -2.22807e-05 3.64707e-05 4.60555e-05
133 1 4.49487 3.10188 12.4041 8.83821e-06 2.07796e-05 3.6701e-06 2.28774e-05
134 1 3.04877 6.71732 5.38539 4.67751e-06 4.12932e-05 -2.19397e-05 4.69932e-05
135 1 4.73921 5.74284 0.0239281 3.95409e-05 7.25485e-06 -4.36109e-05 5.93129e-05
136 1 4.36983 5.41486 3.56305 1.3642e-05 5.27853e-05 2.00968e-05 5.81057e-05
137 1 2.81548 4.11001 4.96765 -2.2445e-05 2.11929e-05 2.15892e-05 3.76697e-05
138 1 3.95647 5.10298 7.14883 -3.98307e-06 6.6257e-06 1.86352e-05 2.01751e-05
139 1 2.40874 3.79746 8.54802 4.14946e-05 5.61619e-05 7.47072e-06 7.02265e-05
140 1 3.54958 4.7531 10.7029 1.9603e-05 -4.31738e-06 2.94919e-06 2.02883e-05
141 1 3.44006 7.04551 1.83324 -3.62079e-05 -1.73222e-05 -5.88836e-06 4.05678e-05
142 1 3.2066 4.41271 1.39917 1.25791e-05 8.7596e-06 2.01738e-05 2.53367e-05
143 1 10.1472 10.3445 1.58691 -1.86874e-06 -1.0573e-06 -2.21068e-05 2.22108e-05
