ITEM: TIMESTEP
0
ITEM: NUMBER OF ATOMS
146
ITEM: BOX BOUNDS pp pp pp
0.0000000000000000e+00 1.1396901000000000e+01
0.0000000000000000e+00 1.2680864000000000e+01
0.0000000000000000e+00 1.2228524999999999e+01
ITEM: ATOMS id type x y z fx fy fz v_fmag
1 1 0.705136 1.07053 1.80241 1.5948e-05 -1.74862e-05 3.15199e-05 3.94159e-05
2 1 6.23104 6.10551 3.51948 -1.42662e-05 3.7486e-05 -2.42397e-05 4.68646e-05
3 1 4.86164 4.883 5.17899 -4.19554e-05 -2.99269e-06 -1.77946e-05 4.56712e-05
4 1 6.23257 5.82966 7.06602 -2.1192e-05 -2.48218e-05 1.57919e-05 3.62575e-05
5 1 6.02351 4.7729 9.4785 -8.87711e-06 6.0397e-06 -4.55041e-05 4.67537e-05
6 1 7.44087 5.68287 11.4523 -1.75238e-05 1.78533e-05 -5.63915e-06 2.56442e-05
7 1 3.8006 7.46469 0.797 -3.14094e-05 -1.07759e-05 2.70827e-05 4.28502e-05
8 1 4.82375 5.16107 1.51919 6.01254e-06 2.21704e-05 -2.05036e-05 3.07908e-05
9 1 5.11895 8.3144 2.70589 2.06141e-06 -1.78001e-05 1.44269e-05 2.30049e-05
10 1 5.61352 8.25223 6.81923 5.72431e-06 -5.70647e-05 1.90317e-05 6.04265e-05
11 1 5.09721 7.14752 9.00727 -3.2703e-05 2.40004e-05 1.46759e-05 4.3138e-05
12 1 6.44534 8.05692 10.9524 -1.03541e-05 1.32753e-05 -2.79322e-05 3.26137e-05
13 1 5.29353 9.45555 0.483089 2.43128e-05 -1.23372e-06 4.7048e-05 5.29731e-05
14 1 6.61743 10.3329 2.43421 -3.83208e-05 -4.33377e-06 -4.27268e-06 3.8801e-05
15 1 3.85732 9.70108 4.39986 1.11198e-05 4.79683e-05 3.08712e-05 5.81175e-05
16 1 4.49232 7.33885 4.95662 2.8455e-05 3.32606e-05 4.20146e-05 6.06728e-05
17 1 4.72014 10.7021 6.35732 6.75096e-05 -3.33038e-05 -8.29307e-05 0.000112001
18 1 8.45912 3.27065 12.0443 -2.49268e-05 1.03076e-05 2.2427e-06 2.7067e-05
19 1 7.12389 3.39515 7.62696 1.33183e-05 -1.2979e-05 -1.53113e-05 2.40888e-05
20 1 2.25411 11.2223 6.21206 3.80741e-05 -3.70457e-05 -7.81552e-05 9.45e-05
21 1 1.79316 10.0439 8.31596 -1.29681e-05 -3.96702e-06 3.4972e-05 3.75093e-05
22 1 5.55038 10.539 10.4672 -1.62286e-05 -7.90585e-07 -4.83437e-05 5.1001e-05
23 1 3.01011 12.2282 4.07593 7.05204e-06 3.79417e-05 4.9982e-06 3.89138e-05
24 1 3.56435 12.0731 8.10081 1.93181e-05 4.46643e-05 6.53365e-05 8.14675e-05
25 1 5.6591 0.145892 1.97857 1.17805e-06 1.36631e-05 -1.69769e-05 2.18239e-05
26 1 6.86143 2.35352 9.98081 -2.08134e-05 -5.49534e-06 -4.93137e-05 5.38074e-05
27 1 7.00173 1.08312 3.87058 3.35235e-06 2.40128e-05 -1.51479e-05 2.85887e-05
28 1 7.89463 0.950504 8.08794 3.8481e-06 -3.24659e-05 5.05899e-06 3.30823e-05
29 1 7.23188 12.5059 10.1906 7.47892e-05 -7.47666e-06 1.34669e-05 7.63589e-05
30 1 8.37989 0.723371 12.108 -5.92708e-06 -3.13694e-05 -1.43888e-05 3.50172e-05
31 1 4.61145 2.64152 1.46867 5.16198e-07 1.15745e-05 -3.64112e-05 3.82101e-05
32 1 5.98654 3.55612 3.35804 1.35238e-05 2.54312e-05 -3.07121e-05 4.21055e-05
33 1 5.84467 2.50174 5.67417 -5.46593e-06 1.46739e-05 -1.7097e-05 2.31842e-05
34 1 6.70834 0.044203 6.12228 3.30216e-05 -2.42488e-05 7.43997e-06 4.16388e-05
35 1 4.25724 9.58811 8.49094 2.54733e-05 8.8922e-06 1.74086e-05 3.21095e-05
36 1 8.01635 10.0324 10.6207 -3.9197e-06 -1.50682e-05 2.34196e-05 2.81228e-05
37 1 4.33456 11.9446 0.0190817 7.48196e-07 -6.49829e-06 -1.4146e-05 1.55851e-05
38 1 9.88222 5.22844 11.5999 -1.54934e-05 1.91878e-05 1.59242e-05 2.93564e-05
39 1 6.3795 6.99671 1.05875 -6.79316e-06 9.20598e-06 3.03397e-05 3.24253e-05
40 1 7.79697 7.91032 3.03738 -5.13597e-06 8.1002e-06 -4.26585e-06 1.04971e-05
41 1 7.79848 7.20181 5.552 3.66172e-05 -5.12459e-05 -1.27885e-06 6.29968e-05
42 1 9.11794 8.62666 8.52392 1.82724e-05 1.41647e-05 -2.48091e-06 2.32524e-05
43 1 7.56091 6.71948 8.99881 -5.9875e-06 -2.03698e-05 1.0069e-05 2.34982e-05
44 1 8.45998 4.29502 9.6251 2.83184e-06 -6.80909e-06 -4.5742e-06 8.67793e-06
45 1 8.89894 7.62311 10.9484 -3.12228e-05 7.31336e-07 -9.54149e-06 3.26563e-05
46 1 9.11513 9.8757 2.61612 1.11592e-05 2.75623e-05 -1.29999e-05 3.24531e-05
47 1 6.3628 9.15653 4.62203 1.13051e-05 -2.36061e-05 -2.02099e-08 2.61736e-05
48 1 7.10196 10.3108 6.56193 2.46433e-05 -1.53286e-05 -1.15754e-05 3.1245e-05
49 1 6.72996 9.15956 8.73646 3.12441e-05 -4.42407e-06 2.25003e-06 3.16359e-05
50 1 0.348003 10.4439 0.222115 -1.04587e-05 -1.37078e-05 2.06944e-05 2.6936e-05
51 1 6.81402 11.4382 0.187211 -1.98547e-05 9.47346e-06 3.05564e-05 3.76517e-05
52 1 7.77474 8.96416 0.668088 1.67761e-05 2.16766e-06 1.70414e-05 2.40114e-05
53 1 8.67803 5.28871 7.20521 -1.49046e-05 -1.77351e-06 1.45215e-05 2.08846e-05
54 1 7.3774 4.5114 5.23511 -1.14626e-05 3.06397e-06 -8.07678e-06 1.43532e-05
55 1 8.9814 5.71552 3.65342 4.53581e-05 -2.40141e-05 1.12888e-05 5.25497e-05
56 1 5.47676 11.7133 4.22112 -7.87574e-05 2.61201e-06 2.08632e-07 7.8801e-05
57 1 5.98061 11.6497 8.2737 3.29902e-05 -2.14665e-05 2.54311e-05 4.68605e-05
58 1 8.13889 12.3229 2.11683 -3.40556e-05 1.95048e-05 5.38941e-05 6.66693e-05
59 1 9.45543 0.545724 4.01256 -5.30507e-06 -1.58496e-05 3.40577e-05 3.79379e-05
60 1 9.22406 12.1096 6.28662 3.95414e-05 -3.21968e-05 1.00387e-05 5.19705e-05
61 1 10.2571 0.496021 8.23598 7.04196e-05 -2.41515e-05 1.43589e-05 7.58182e-05
62 1 9.65602 11.9962 10.2814 -3.96549e-06 2.09851e-05 5.71794e-05 6.10376e-05
63 1 10.8235 0.182271 12.1899 -8.4701e-06 3.8864e-05 -3.86581e-05 5.54671e-05
64 1 7.14308 2.16035 1.6123 -2.57062e-05 6.3052e-06 1.3024e-05 2.94989e-05
65 1 8.51761 3.12732 3.44409 1.40937e-07 3.78519e-05 1.52932e-05 4.08249e-05
66 1 8.30074 1.98131 5.79608 1.81486e-05 2.29064e-06 -4.91098e-06 1.89403e-05
67 1 9.56416 2.90026 7.77051 2.22803e-05 -2.00222e-06 1.68722e-05 2.80195e-05
68 1 9.254 1.87161 10.1127 5.92387e-05 1.25307e-05 -3.77159e-06 6.06669e-05
69 1 11.0015 2.72544 12.1483 -1.43678e-05 2.30336e-05 -1.10345e-05 2.93043e-05
70 1 7.43682 4.70237 1.6687 4.65104e-06 1.13776e-05 -2.24161e-05 2.55649e-05
71 1 1.44913 10.1796 4.28516 -7.11946e-06 9.30483e-05 9.11111e-05 0.000130422
72 1 4.13947 10.8446 2.24811 -1.28561e-05 6.14518e-06 -3.01534e-06 1.45648e-05
73 1 2.81081 9.94478 0.317322 -6.64662e-06 -2.29842e-06 1.89955e-05 2.02556e-05
74 1 3.98181 8.56241 10.762 -5.19874e-06 -1.34716e-05 -3.77248e-05 4.03939e-05
75 1 9.28558 10.9252 0.300279 2.3625e-05 -1.0472e-05 -1.64019e-05 3.06076e-05
76 1 10.4782 10.7376 4.56332 -5.41969e-05 -4.77689e-05 2.64243e-06 7.22922e-05
77 1 0.626976 2.40273 7.89556 1.94585e-06 -3.12031e-05 2.77419e-05 4.17975e-05
78 1 0.211269 1.33794 10.1681 -0.000144547 3.1176e-05 3.51186e-05 0.000151984
79 1 0.882435 4.75342 11.6418 -3.42035e-05 1.64182e-05 -1.64569e-05 4.13553e-05
80 1 0.649369 11.4741 10.1178 -3.09458e-05 1.26515e-05 -8.38644e-06 3.44679e-05
81 1 10.4481 9.56822 10.4423 -2.14057e-05 3.25994e-05 1.62195e-05 4.22374e-05
82 1 1.86311 12.4258 12.0996 -1.21769e-05 -2.02467e-06 2.39778e-05 2.69687e-05
83 1 1.82585 1.06082 5.92935 -1.63666e-05 -2.021e-05 1.66952e-06 2.60595e-05
84 1 3.07528 1.95304 7.88484 3.18215e-05 -2.77946e-05 -2.25538e-05 4.78939e-05
85 1 2.44387 0.693834 9.85687 0.000128868 -5.73389e-05 -4.53392e-05 0.000148156
86 1 3.32821 1.74448 11.8218 3.87768e-05 6.85084e-06 -2.05051e-05 4.43963e-05
87 1 0.972689 4.48581 3.1498 3.83985e-07 -2.67346e-06 -1.81969e-05 1.83963e-05
88 1 0.896055 3.43178 5.50789 -1.00105e-05 -1.15486e-05 4.83208e-05 5.06801e-05
89 1 2.04154 2.02571 3.63591 -1.5007e-05 1.61332e-06 6.45897e-07 1.51073e-05
90 1 10.7782 10.63 7.96973 -4.14521e-06 -1.33648e-05 8.28024e-06 1.62593e-05
91 1 9.22328 9.40313 6.15347 2.20159e-05 -4.96795e-05 1.95134e-05 5.77367e-05
92 1 10.612 11.7918 2.23024 -5.0662e-05 -3.57084e-05 1.82485e-05 6.46122e-05
93 1 9.63901 1.67528 1.72348 6.45522e-06 5.38264e-05 2.37752e-05 5.91964e-05
94 1 10.9783 2.49926 3.59849 -5.8819e-05 -3.13315e-05 1.794e-05 6.90158e-05
95 1 10.7576 1.44672 5.94886 -1.82445e-05 -9.6452e-06 5.49583e-06 2.13564e-05
96 1 10.1498 4.29746 1.77486 1.90882e-05 3.86225e-05 1.30959e-05 4.50284e-05
97 1 11.2373 5.82575 4.89108 1.0713e-05 9.09015e-06 2.65204e-05 3.00122e-05
98 1 9.82643 3.89281 5.39581 -1.04191e-05 -8.84255e-06 3.63562e-06 1.4141e-05
99 1 11.1452 4.80979 7.32108 1.16517e-05 -2.47281e-05 2.08222e-05 3.43628e-05
100 1 10.8955 3.7961 9.73883 -6.64993e-07 -1.15175e-05 3.8136e-06 1.21507e-05
101 1 8.93224 6.59921 1.22204 2.71389e-05 -3.44145e-05 -3.86234e-06 4.39977e-05
102 1 10.1187 8.04409 4.24809 1.09681e-05 3.62763e-06 -1.25082e-05 1.70268e-05
103 1 10.1581 7.16262 6.6981 2.07082e-05 -1.50005e-05 2.2832e-05 3.42804e-05
104 1 0.159481 8.14246 8.63567 1.00115e-05 8.08415e-06 -2.35997e-05 2.68799e-05
105 1 10.0136 6.20333 9.13786 -6.79535e-06 -1.01222e-05 5.35306e-06 1.3315e-05
106 1 11.3519 7.12695 11.0279 -1.57281e-05 5.73023e-05 4.51019e-07 5.94233e-05
107 1 10.2236 8.54357 0.607431 -2.28398e-06 3.68666e-06 2.00472e-05 2.05109e-05
108 1 2.20565 4.32271 7.46105 -4.87296e-06 -2.61001e-05 7.48277e-06 2.75854e-05
109 1 7.94825 11.1958 4.38662 1.22883e-05 -1.31682e-05 2.13323e-05 2.7919e-05
110 1 1.95415 3.23063 9.93943 8.82242e-06 2.51987e-05 -5.2355e-06 2.72069e-05
111 1 11.2503 6.65456 2.37206 3.51035e-05 -3.67017e-06 2.07146e-05 4.09245e-05
112 1 4.67884 3.88287 7.53199 3.8787e-05 -2.97225e-06 -4.43968e-05 5.90284e-05
113 1 4.43614 2.83292 9.8943 -1.7814e-05 1.67438e-05 -1.20784e-05 2.72687e-05
114 1 5.93531 3.76106 11.8967 1.33176e-05 2.85532e-05 -2.58149e-05 4.07315e-05
115 1 2.09196 5.64418 1.28058 4.80941e-05 -2.30345e-05 3.30545e-05 6.27395e-05
116 1 3.35656 6.47975 3.09571 -7.96353e-06 -2.38385e-05 -3.18569e-05 4.05778e-05
117 1 2.40442 5.38607 5.10911 -3.30653e-05 8.9776e-06 1.39665e-05 3.69997e-05
118 1 3.3691 2.96884 5.57128 1.99542e-05 3.76544e-06 -1.59081e-05 2.57956e-05
119 1 3.76198 6.27323 7.06923 -2.48513e-05 6.32704e-06 1.86656e-06 2.57119e-05
120 1 4.95642 6.11163 11.3206 -1.3197e-06 -2.54515e-05 -2.42587e-05 3.51853e-05
121 1 1.26273 7.95375 0.693092 2.0509e-06 -4.78184e-05 -8.83352e-06 4.86707e-05
122 1 2.60413 8.8254 2.51831 -2.62803e-06 2.8905e-05 -4.91754e-05 5.71019e-05
123 1 1.45106 7.65712 4.38553 -7.12663e-06 1.24993e-05 2.31887e-05 2.72899e-05
124 1 2.91297 8.67812 6.44797 -3.53618e-06 -5.813e-07 3.37353e-05 3.39251e-05
125 1 2.63009 7.65369 8.80843 2.9307e-05 9.9616e-06 9.79791e-06 3.24674e-05
126 1 3.53466 5.18995 9.40082 5.25107e-06 -1.82026e-05 4.34773e-05 4.74256e-05
127 1 3.44958 3.9874 3.21943 -4.05262e-06 -1.02947e-05 -3.49202e-05 3.66309e-05
128 1 1.93257 3.09867 1.23553 -4.01122e-05 -1.1554e-05 -4.09264e-05 5.8459e-05
129 1 5.88597 1.2413 11.9729 4.58823e-05 3.41172e-05 6.2451e-07 5.71801e-05
130 1 1.26934 6.75797 6.84522 2.41443e-05 -9.79106e-06 2.57529e-06 2.6181e-05
131 1 1.07781 5.70858 9.2393 -1.05892e-06 -2.99777e-05 9.61925e-06 3.1501e-05
132 1 2.4511 6.62469 11.1273 -1.38867e-05 -3.65254e-06 1.01302e-05 1.75728e-05
133 1 0.111804 9.26898 2.53884 -2.56351e-05 1.78258e-05 -7.35746e-05 7.99258e-05
134 1 0.371625 9.10576 6.23509 2.46914e-05 9.68055e-06 1.69125e-05 3.14549e-05
135 1 1.49934 9.0389 10.6185 -2.58472e-05 -3.35001e-07 1.40729e-05 2.94319e-05
136 1 1.66251 11.3329 2.13752 -4.29197e-05 1.57495e-05 -1.76598e-05 4.90103e-05
137 1 0.541923 0.00581143 4.14362 -2.7984e-05 1.97275e-05 3.88339e-05 5.17721e-05
138 1 3.0999 10.9765 10.2924 -9.21937e-06 4.63268e-05 -1.52736e-05 4.96432e-05
139 1 1.12535 12.5548 7.93304 1.32102e-05 -1.81457e-05 -3.76402e-05 4.38242e-05
140 1 3.182 0.635106 1.83197 -2.3823e-05 2.36753e-05 -3.47881e-05 4.83556e-05
141 1 4.52171 1.55529 3.75674 1.75387e-05 -1.71466e-05 -4.09847e-05 4.77635e-05
142 1 4.24678 0.513176 6.01128 9.73029e-06 4.24002e-06 -6.35165e-05 6.43972e-05
143 1 5.4915 1.46238 7.96647 2.4403e-05 1.95377e-05 -2.13398e-05 3.785e-05
144 1 4.8117 0.312372 10.042 -0.000126121 2.65763e-05 -8.42867e-05 0.000154003
145 1 3.41205 4.25721 11.8104 -2.18466e-05 -1.64861e-05 -1.51852e-05 3.12995e-05
146 1 8.42567 11.109 8.40208 2.51972e-05 -1.78162e-05 3.91283e-05 4.98331e-05
