ITEM: TIMESTEP
0
ITEM: NUMBER OF ATOMS
160
ITEM: BOX BOUNDS pp pp pp
0.0000000000000000e+00 1.1400361000000000e+01
0.0000000000000000e+00 1.2098903999999999e+01
0.0000000000000000e+00 1.2816801000000000e+01
ITEM: ATOMS id type x y z fx fy fz v_fmag
1 1 0.744518 9.15854 11.0147 3.00658e-05 4.50075e-05 3.16024e-05 6.26765e-05
2 1 8.58689 3.09666 1.34802 4.0899e-05 -3.38011e-05 -1.27046e-05 5.45587e-05
3 1 10.2335 2.10106 3.26938 -1.11396e-05 -1.59441e-05 -1.84745e-05 2.68256e-05
4 1 8.55635 3.95648 3.6548 5.45945e-06 4.95528e-05 7.17537e-06 5.03664e-05
5 1 6.97305 2.09803 5.44113 -2.5115e-05 -6.13158e-05 -1.89365e-05 6.89128e-05
6 1 8.61381 3.15853 7.78186 -6.70611e-05 -1.91417e-05 1.05653e-05 7.05352e-05
7 1 7.5252 1.75631 9.61731 -2.24746e-05 3.85196e-05 -7.92681e-06 4.52957e-05
8 1 9.95995 3.07009 12.0393 2.98924e-05 -5.37878e-05 4.56257e-06 6.1705e-05
9 1 9.00316 0.807816 11.5959 4.86018e-05 4.67124e-06 -2.30681e-05 5.40008e-05
10 1 8.45113 4.87401 12.4123 -9.97834e-06 6.16524e-05 1.92264e-05 6.53471e-05
11 1 9.3364 6.22757 4.15556 -3.55225e-06 -6.68759e-06 1.0141e-06 7.64008e-06
12 1 7.49226 4.29921 5.87272 -6.19851e-06 4.18153e-06 -5.28049e-06 9.1537e-06
13 1 9.37783 5.50688 8.30552 -8.78636e-06 1.13073e-05 -3.79793e-05 4.05892e-05
14 1 8.30085 4.0723 10.091 2.77723e-05 8.00892e-06 -4.22258e-05 5.1171e-05
15 1 7.99446 8.90474 0.32092 -2.71797e-07 1.11642e-06 -1.89062e-05 1.89411e-05
16 1 8.0378 7.14889 2.16815 5.4969e-05 2.55389e-05 -6.07281e-05 8.58005e-05
17 1 10.0918 8.47899 4.521 -3.77218e-05 4.35376e-05 -8.30047e-06 5.8201e-05
18 1 7.08534 4.89562 1.70963 -4.67304e-05 5.18249e-05 -9.47945e-06 7.0423e-05
19 1 8.15812 6.49629 6.35683 -2.43709e-05 -0.0001077 -1.78648e-05 0.000111859
20 1 7.89156 0.821967 7.33953 1.71083e-05 5.17003e-05 -1.5011e-05 5.64884e-05
21 1 10.0629 1.307 0.995285 -1.67582e-05 1.39081e-06 -1.8593e-05 2.50694e-05
22 1 5.73332 6.05957 6.21521 4.5763e-05 -3.88371e-05 -2.07708e-05 6.35138e-05
23 1 5.28571 6.87796 8.51068 -3.98797e-06 -5.43618e-05 2.94059e-05 6.19339e-05
24 1 4.19358 5.48306 10.3206 6.97032e-05 -7.7304e-06 1.02732e-05 7.0879e-05
25 1 6.54036 10.6933 0.617744 -2.89593e-05 8.39767e-05 -2.50012e-05 9.2281e-05
26 1 5.4973 8.49945 0.264728 4.34245e-05 -9.92187e-07 -3.76704e-05 5.74955e-05
27 1 5.97661 9.74657 4.86362 -4.8971e-05 4.42046e-05 3.55941e-05 7.49609e-05
28 1 4.01855 7.81787 6.53958 2.4414e-05 3.05779e-05 2.51735e-05 4.6527e-05
29 1 8.90191 0.355275 5.12865 -0.000114453 -0.000112375 3.34212e-05 0.000163843
30 1 7.29338 8.27975 10.8899 -4.71053e-06 2.90108e-06 -2.47136e-05 2.53252e-05
31 1 5.02359 10.7246 2.90053 7.37254e-05 -1.594e-06 6.41994e-06 7.40215e-05
32 1 3.55046 9.36051 4.66841 -1.39355e-05 -3.30015e-05 -2.02108e-05 4.11312e-05
33 1 7.18104 10.5866 6.97573 -5.31501e-06 2.23325e-05 -4.38522e-05 4.94975e-05
34 1 6.04076 9.18932 8.94525 -2.06082e-06 5.31145e-05 -1.87989e-05 5.63808e-05
35 1 8.07467 10.5941 11.2367 -1.25984e-05 8.45137e-06 -1.36363e-05 2.03983e-05
36 1 6.51883 11.9956 5.00192 -0.000103981 -0.000114296 -3.405e-05 0.000158225
37 1 6.76731 11.5156 9.21841 -5.27286e-05 4.43469e-06 -2.17106e-06 5.29592e-05
38 1 4.50182 6.25437 12.6281 1.26708e-05 1.19725e-05 9.10964e-06 1.96692e-05
39 1 7.67608 8.00381 4.48575 -4.84783e-05 -6.97186e-06 7.24006e-06 4.95093e-05
40 1 7.72267 7.34578 8.63247 5.81478e-05 -1.41093e-05 -1.40817e-05 6.14698e-05
41 1 8.99807 11.1433 0.645561 1.26153e-05 3.79204e-05 1.06779e-05 4.13657e-05
42 1 0.617174 5.77644 1.91546 -3.93556e-05 0.000103937 2.44402e-05 0.000113794
43 1 9.55406 5.33741 1.83746 6.11337e-05 1.82497e-05 -4.43492e-05 7.76996e-05
44 1 0.370717 6.70897 4.1965 3.01933e-05 -6.68266e-06 2.57605e-06 3.10311e-05
45 1 9.89253 4.73754 6.05371 -8.79588e-05 -3.77358e-05 -0.000113642 0.000148577
46 1 10.709 4.57171 10.2382 3.13372e-05 2.6618e-06 -2.98429e-05 4.33555e-05
47 1 10.9215 5.33309 12.5308 1.83424e-05 7.75763e-06 -2.7398e-07 1.99173e-05
48 1 10.4599 9.33265 0.385481 2.14772e-05 4.16156e-06 1.73023e-07 2.18773e-05
49 1 9.95743 2.20757 9.72463 -1.40338e-05 -2.78859e-05 1.52901e-05 3.47615e-05
50 1 10.4777 7.60878 2.24 2.51281e-05 2.01342e-05 -3.04849e-05 4.43412e-05
51 1 10.1447 7.81134 8.68203 -8.11078e-07 -2.04247e-05 4.37381e-06 2.09035e-05
52 1 9.01024 6.41306 10.5683 -5.39431e-06 9.78395e-07 -7.61356e-06 9.38201e-06
53 1 11.3421 9.91757 2.62527 3.514e-05 4.6237e-05 2.32331e-05 6.25496e-05
54 1 10.7587 10.6944 4.90651 -5.33554e-05 -3.14777e-05 7.69146e-05 9.87598e-05
55 1 8.87567 8.75712 6.70826 1.46257e-06 3.81223e-05 2.23831e-05 4.42318e-05
56 1 9.45398 7.11185 0.038347 6.78745e-05 -6.73136e-06 4.12278e-05 7.96994e-05
57 1 0.79241 0.153284 2.89009 -8.94582e-06 1.15252e-05 -3.42075e-05 3.71888e-05
58 1 10.5781 6.96218 6.40226 -2.04013e-05 -9.41413e-05 6.5351e-06 9.6548e-05
59 1 6.60309 5.94968 10.4438 8.70669e-06 7.88339e-06 -2.21832e-05 2.51008e-05
60 1 11.0134 3.67503 7.99887 -1.35546e-05 -4.3798e-05 -6.1128e-05 7.64109e-05
61 1 10.9627 4.42883 3.85293 -2.06323e-05 8.60209e-05 -3.44923e-05 9.49474e-05
62 1 8.93051 9.4705 2.53109 1.15345e-05 -4.20981e-07 -1.63113e-05 1.9982e-05
63 1 8.35762 10.2403 4.78797 -2.36274e-05 -4.27829e-05 -4.27582e-05 6.49376e-05
64 1 6.45993 8.26504 6.70283 -1.35953e-05 -2.06246e-05 -1.88157e-06 2.47739e-05
65 1 9.71349 8.72699 10.9483 -3.41948e-05 1.44155e-07 -1.12713e-05 3.60048e-05
66 1 7.35499 11.3621 2.79899 1.73276e-06 4.16653e-05 -2.60431e-05 4.91655e-05
67 1 6.52353 8.96325 2.49696 1.48184e-05 -2.3329e-05 -1.50779e-05 3.14829e-05
68 1 9.59403 11.0552 7.06855 2.39276e-05 -3.38028e-05 1.06964e-05 4.27735e-05
69 1 9.34151 2.57069 5.49194 -4.3145e-05 1.36627e-05 3.65557e-05 5.81763e-05
70 1 8.45571 9.66386 8.96882 3.582e-05 9.47463e-06 5.70178e-06 3.7488e-05
71 1 9.16725 11.987 9.31521 5.54695e-05 2.20612e-05 2.21399e-05 6.36689e-05
72 1 0.0201153 11.5536 0.71508 -2.35657e-05 4.12893e-05 8.27611e-06 4.8256e-05
73 1 11.2841 0.831151 5.03645 -3.06182e-05 -4.11418e-05 -9.61131e-06 5.21776e-05
74 1 10.3045 1.29685 7.36588 1.97847e-06 -3.36041e-05 2.0061e-05 3.91866e-05
75 1 0.0878916 1.22286 11.7702 1.44353e-06 4.01027e-05 5.72032e-06 4.05343e-05
76 1 11.061 3.54602 1.48737 -5.36042e-05 4.78414e-05 -0.000110245 0.000131591
77 1 1.15528 2.69817 3.45593 9.78026e-05 -9.95581e-06 -7.5849e-07 9.8311e-05
78 1 10.4938 11.0301 11.3175 -5.6536e-06 -2.57876e-06 -2.34279e-05 2.4238e-05
79 1 5.56686 6.71913 2.04563 -6.91795e-06 4.08273e-06 -3.5629e-05 3.65233e-05
80 1 6.97327 6.68239 12.7589 7.75566e-05 6.78852e-05 3.19448e-05 0.000107907
81 1 5.87357 3.61648 9.95216 1.96044e-05 2.22583e-05 3.53835e-05 4.6171e-05
82 1 11.3026 9.22319 6.79818 -9.18963e-06 -1.8653e-05 2.54373e-05 3.28548e-05
83 1 1.16798 8.24378 8.74134 7.21913e-05 2.2147e-05 7.86618e-05 0.00010904
84 1 3.1916 9.691 11.1302 -4.82754e-05 -2.9114e-05 9.67277e-07 5.63833e-05
85 1 1.90703 10.5306 9.03205 -6.53367e-06 -5.26968e-05 4.85823e-05 7.19714e-05
86 1 5.2106 0.467272 0.672852 9.93543e-05 -0.000111171 -9.61727e-05 0.000177424
87 1 4.14064 11.5539 5.0777 -4.84456e-05 -8.29509e-06 2.92419e-05 5.71915e-05
88 1 2.6632 0.78359 9.50808 1.75791e-07 6.14237e-06 -1.70432e-05 1.81171e-05
89 1 2.34305 12.0246 0.329482 6.87403e-05 0.000117047 9.06079e-05 0.000163202
90 1 4.05583 12.014 11.4189 -3.35078e-05 6.95987e-05 3.15265e-05 8.34307e-05
91 1 2.74588 1.13266 3.94366 2.20515e-05 2.3669e-05 -0.000317629 0.000319272
92 1 3.7843 3.10541 3.32621 -2.60675e-05 -3.35256e-05 -1.04098e-05 4.37247e-05
93 1 2.04268 1.18237 6.01412 -0.000154969 -1.82801e-05 0.000266539 0.000308857
94 1 3.72158 2.20721 7.58369 -2.74878e-05 1.84715e-05 4.30879e-05 5.43447e-05
95 1 0.144769 0.341914 9.43428 5.65366e-06 3.62257e-05 -5.35566e-05 6.49043e-05
96 1 5.00512 2.21206 11.7623 6.39941e-05 1.72987e-05 -5.34179e-05 8.5135e-05
97 1 2.01952 5.7964 12.5903 2.43865e-05 -5.36887e-06 6.43916e-05 6.90638e-05
98 1 3.63924 2.21626 1.04249 -6.65924e-05 8.22502e-05 3.80832e-05 0.000112472
99 1 2.17853 4.0066 1.5539 7.82697e-05 -8.7232e-05 1.03943e-05 0.000117659
100 1 0.540943 7.55608 0.105812 4.48712e-05 -4.22119e-06 1.32882e-05 4.69875e-05
101 1 1.11492 8.93997 4.60387 2.76768e-06 -4.63202e-05 3.82632e-05 6.01439e-05
102 1 1.75499 11.1845 4.93277 -0.000103463 -6.19643e-05 -6.72381e-06 0.000120786
103 1 0.615751 11.5663 7.13582 2.38734e-05 -1.53094e-05 3.73167e-05 4.68706e-05
104 1 1.49032 11.4468 11.1495 5.82073e-05 -4.26363e-05 -2.05585e-05 7.50239e-05
105 1 1.19154 1.76571 1.1683 6.17444e-05 -5.20932e-05 -3.559e-05 8.82764e-05
106 1 0.310933 2.95232 5.80635 -5.88497e-05 -2.90427e-05 -5.67601e-05 8.67668e-05
107 1 1.19974 1.85714 7.93653 -1.17752e-05 -3.3188e-05 -3.08194e-05 4.67968e-05
108 1 2.52571 1.78895 11.6948 1.12921e-05 1.6391e-05 -1.84693e-05 2.71531e-05
109 1 2.46901 7.3429 10.7007 -1.30795e-05 -3.05181e-05 7.86535e-05 8.53744e-05
110 1 1.02293 3.55743 12.249 2.29891e-05 -3.93955e-05 3.6413e-05 5.83645e-05
111 1 2.08477 4.10103 7.90916 1.51558e-05 2.04647e-05 1.61458e-05 3.01527e-05
112 1 0.949487 2.7381 10.032 -2.47037e-05 4.23686e-06 2.36871e-05 3.44863e-05
113 1 2.81285 7.15433 4.27401 -4.54661e-05 -1.2601e-05 6.2008e-05 7.79163e-05
114 1 0.89969 5.17274 6.02352 -3.6588e-05 -4.28187e-05 1.19169e-05 5.75685e-05
115 1 0.422511 5.95151 8.33736 -1.5003e-05 -3.72812e-05 -9.3733e-06 4.12655e-05
116 1 1.52665 9.78367 0.444985 -9.1911e-06 -7.42854e-05 7.80039e-05 0.000108108
117 1 1.52471 8.0507 2.3083 2.30461e-05 4.14479e-05 2.30537e-05 5.27306e-05
118 1 2.04206 4.92856 3.82058 -1.45618e-06 -1.21938e-05 6.62974e-05 6.74251e-05
119 1 4.48425 5.34527 3.89538 -8.29127e-06 1.29397e-05 -2.7263e-06 1.56081e-05
120 1 2.70466 3.3594 5.53584 -2.14238e-05 -2.7649e-05 -4.2484e-06 3.52349e-05
121 1 4.52369 4.55428 8.03717 -1.20362e-05 1.98142e-06 2.3333e-07 1.22005e-05
122 1 7.59914 0.872254 0.894976 -2.56005e-05 1.75629e-05 2.96462e-06 3.1187e-05
123 1 7.87294 1.60608 3.2199 2.0918e-05 5.02388e-06 -9.68529e-06 2.35925e-05
124 1 5.49238 0.336781 7.23285 -2.76598e-05 5.30485e-06 1.82978e-05 3.3586e-05
125 1 6.55033 0.358331 11.459 -1.60446e-05 2.71236e-05 1.0671e-06 3.15319e-05
126 1 6.10834 2.66174 1.25315 1.73401e-05 5.89874e-05 -5.26162e-05 8.09237e-05
127 1 5.46803 1.12353 3.12162 -1.52997e-05 4.61039e-07 -1.0786e-05 1.87252e-05
128 1 6.1652 3.47627 3.57011 6.12954e-05 2.27842e-05 -3.58643e-05 7.45821e-05
129 1 4.37438 11.0013 9.25845 2.74561e-05 -3.79866e-05 -7.21766e-05 8.60597e-05
130 1 4.59931 1.68368 5.36664 5.68327e-06 -6.28541e-05 -3.1719e-05 7.06331e-05
131 1 5.08957 1.27022 9.49449 -2.23368e-05 3.86596e-05 -3.84909e-05 5.89496e-05
132 1 7.47136 2.62917 11.9317 -1.38626e-05 6.44603e-05 2.28585e-05 6.9784e-05
133 1 5.97782 4.44141 12.2736 4.91737e-05 -5.84389e-05 -8.61015e-06 7.68589e-05
134 1 4.6364 4.48773 1.54095 2.70078e-05 1.60484e-06 1.28203e-05 2.99392e-05
135 1 6.90534 5.77827 4.01384 -2.14091e-05 -3.9247e-05 3.85753e-05 5.90485e-05
136 1 5.09268 3.87125 5.75924 -3.89849e-05 -6.96427e-05 -3.25065e-05 8.61777e-05
137 1 6.9561 5.02529 8.15648 1.5155e-05 -4.93305e-06 -6.49445e-05 6.68715e-05
138 1 6.17447 2.68956 7.67002 2.45253e-05 6.15239e-06 -5.42487e-05 5.9852e-05
139 1 3.15016 11.8453 7.37523 -1.41212e-06 2.30601e-05 -5.86344e-05 6.30218e-05
140 1 5.64232 10.1515 11.2208 2.05719e-05 3.33201e-06 8.38544e-06 2.24637e-05
141 1 3.59346 8.71709 8.82168 2.32426e-05 -1.53627e-06 3.39809e-05 4.11981e-05
142 1 3.42317 3.14989 9.83355 1.25271e-05 -5.63634e-06 -4.55934e-05 4.76178e-05
143 1 3.49092 4.01962 12.154 1.129e-05 5.56189e-05 2.15041e-05 6.06906e-05
144 1 3.04174 8.04591 0.171167 -3.06242e-06 2.4608e-05 6.95732e-05 7.38605e-05
145 1 3.10271 6.27058 1.96331 2.52044e-05 1.86998e-05 1.61291e-05 3.52859e-05
146 1 5.24517 7.57877 4.34557 -7.6674e-05 -5.55518e-05 -3.02929e-06 9.47316e-05
147 1 3.30509 5.57576 6.10858 -2.7321e-05 -1.22117e-05 2.01068e-05 3.60533e-05
148 1 2.85575 6.40363 8.40683 3.94369e-05 -3.5674e-06 5.24177e-05 6.56933e-05
149 1 0.038868 6.86276 10.6287 -7.12159e-06 -2.66105e-05 2.36116e-05 3.62814e-05
150 1 4.02958 10.3419 0.596876 8.40647e-05 2.27706e-05 4.25883e-05 9.69492e-05
151 1 4.01295 8.53709 2.37946 3.89823e-05 1.79781e-05 -4.22463e-06 4.31356e-05
152 1 2.31793 9.65013 6.79522 -4.17652e-05 3.35663e-05 1.23209e-05 5.49802e-05
153 1 1.59599 7.38484 6.46544 -2.00263e-06 -1.1058e-05 3.91543e-05 4.07351e-05
154 1 4.87768 7.8335 10.7857 1.20568e-05 2.35567e-05 -1.90875e-05 3.26284e-05
155 1 1.76394 5.01239 10.2692 -2.24279e-05 2.22846e-05 7.01202e-05 7.69186e-05
156 1 3.49472 0.142323 2.18882 -0.00013596 0.000135757 0.000121608 0.000227384
157 1 2.36093 10.2956 2.71533 -3.32789e-05 2.36729e-05 3.47002e-07 4.08413e-05
158 1 4.76725 10.0709 6.98297 1.6425e-06 1.49894e-05 3.32224e-05 3.64843e-05
159 1 9.75266 11.8225 2.90588 1.90648e-05 -7.16948e-06 -3.98357e-05 4.47409e-05
160 1 10.8784 10.1232 9.0524 6.12035e-05 -3.22998e-05 4.76767e-05 8.4037e-05
