ITEM: TIMESTEP
0
ITEM: NUMBER OF ATOMS
133
ITEM: BOX BOUNDS pp pp pp
0.0000000000000000e+00 1.1464695000000001e+01
0.0000000000000000e+00 1.1317634999999999e+01
0.0000000000000000e+00 1.1648808000000001e+01
ITEM: ATOMS id type x y z fx fy fz v_fmag
1 1 0.411052 0.770296 6.36049 -2.43898e-05 -4.08411e-06 -1.99938e-05 3.18009e-05
2 1 4.1304 8.35985 10.8739 1.96389e-05 6.25644e-05 -2.42772e-05 6.9924e-05
3 1 5.26526 8.31103 8.4471 -1.0893e-05 3.64448e-05 -4.05905e-05 5.5628e-05
4 1 6.71396 8.22393 5.62227 3.49339e-05 -5.21834e-06 2.10867e-05 4.11371e-05
5 1 4.97223 8.32412 3.61712 4.84691e-05 -6.96588e-05 1.44845e-05 8.60895e-05
6 1 7.18889 10.6021 1.69558 -8.08202e-06 3.5825e-05 3.21678e-05 4.88213e-05
7 1 7.4571 6.43008 9.42595 2.5513e-05 1.58548e-05 7.24261e-06 3.08989e-05
8 1 6.26265 6.55292 7.20367 -3.18727e-06 8.29735e-06 4.20512e-05 4.29803e-05
9 1 7.62455 6.41818 4.32295 2.23181e-06 3.31525e-05 -3.58625e-05 4.88896e-05
10 1 6.00615 6.42563 2.48318 1.14218e-05 6.80463e-05 1.21911e-05 7.0067e-05
11 1 8.20019 8.57563 0.665068 4.97066e-05 -5.13372e-05 -1.59088e-05 7.32075e-05
12 1 6.46171 4.24431 10.5076 4.6157e-05 4.78517e-06 -2.63522e-05 5.33648e-05
13 1 5.53246 4.64651 8.28195 -4.70713e-05 -1.44667e-05 9.78023e-06 5.02061e-05
14 1 6.65969 4.68239 5.72337 -2.62941e-05 7.57616e-06 3.75634e-05 4.64735e-05
15 1 7.37959 4.40677 3.013 1.54553e-06 -1.68742e-05 1.14916e-05 2.0474e-05
16 1 6.80687 6.41862 0.12822 1.86451e-05 -3.62805e-05 -1.66575e-05 4.40612e-05
17 1 7.87181 2.09768 11.0644 -6.09936e-06 -2.18344e-06 -8.57537e-05 8.5998e-05
18 1 7.20128 2.76949 8.7496 -3.00164e-05 3.76482e-05 9.17848e-05 0.000103648
19 1 8.05107 2.75424 6.32957 -4.05123e-06 3.65998e-05 2.87738e-05 4.67321e-05
20 1 6.38886 2.71344 4.40572 3.14879e-05 8.68614e-05 -1.94524e-06 9.24131e-05
21 1 8.20853 4.28012 0.666505 -5.57827e-05 -7.48291e-06 -1.70488e-05 5.88079e-05
22 1 8.68132 0.774897 9.19879 -7.50952e-06 2.02576e-06 -4.65256e-05 4.71713e-05
23 1 9.45256 0.774219 6.84835 4.76632e-05 -3.21701e-05 -2.62427e-05 6.32089e-05
24 1 7.75284 0.769531 4.9854 1.04135e-05 -5.86738e-05 2.57429e-05 6.49134e-05
25 1 7.20354 2.24172 1.69225 -5.14902e-05 1.02443e-05 2.8966e-06 5.25792e-05
26 1 7.91022 10.7393 11.0467 -5.43949e-05 -2.43896e-05 -4.79846e-05 7.65257e-05
27 1 9.64798 10.9109 1.24039 -6.24713e-06 -4.13657e-05 1.83876e-05 4.56974e-05
28 1 1.49411 10.3634 9.87878 6.23866e-05 3.35963e-05 -4.59752e-05 8.44661e-05
29 1 5.6234 10.0927 6.83809 1.41563e-05 -2.76105e-05 2.82576e-05 4.19671e-05
30 1 3.93942 10.1388 4.86406 5.22304e-06 6.81507e-05 -1.69455e-05 7.04198e-05
31 1 5.42343 10.7309 11.6397 1.55982e-06 -3.73809e-05 1.48818e-05 4.02646e-05
32 1 6.38349 10.1684 4.36555 -2.34607e-05 3.0294e-05 -5.06271e-05 6.3492e-05
33 1 8.07889 10.118 6.32039 9.63919e-06 1.91271e-05 -2.85882e-05 3.57218e-05
34 1 4.35653 10.2755 9.43987 -4.61879e-05 5.32984e-05 4.21104e-05 8.21422e-05
35 1 10.5801 8.13951 7.10188 -2.9757e-05 8.62375e-06 -7.72603e-05 8.32407e-05
36 1 9.84465 8.48475 2.48772 1.18545e-05 -3.32728e-05 3.15691e-05 4.73731e-05
37 1 10.5976 4.76377 7.07595 -8.09184e-06 -6.95169e-05 4.64037e-05 8.39725e-05
38 1 11.2117 2.5838 3.31627 3.52435e-06 2.051e-05 2.9441e-05 3.60535e-05
39 1 7.14274 10.0977 8.76315 -7.52718e-05 -2.00524e-05 2.96186e-05 8.33379e-05
40 1 10.4948 10.1507 5.73658 -9.05896e-06 1.47638e-05 6.01006e-05 6.25469e-05
41 1 8.7493 10.4326 3.55285 5.05909e-05 3.10652e-05 -2.65437e-05 6.50312e-05
42 1 8.93144 8.54866 9.96588 -1.73994e-06 2.99227e-06 -8.21396e-05 8.22125e-05
43 1 6.52261 8.57403 10.4982 -2.20952e-05 3.75749e-05 -2.3984e-05 4.97524e-05
44 1 8.07317 8.11578 7.73335 2.74253e-05 -2.02182e-05 -3.0263e-05 4.55717e-05
45 1 9.06254 8.40754 4.89948 -6.55357e-05 -2.50682e-05 3.40122e-06 7.02489e-05
46 1 7.38733 8.44275 3.00733 -7.10031e-07 -2.90127e-05 2.59146e-05 3.89077e-05
47 1 11.2484 10.3922 3.06552 -1.02777e-05 -5.42484e-05 2.84187e-05 6.20978e-05
48 1 9.888 6.43016 8.79564 -1.04665e-05 -9.00659e-06 5.49261e-05 5.66352e-05
49 1 2.97601 10.27 0.104487 1.80752e-05 7.40251e-05 6.12687e-05 9.77767e-05
50 1 9.01892 6.45869 6.29858 -4.3067e-05 6.74248e-05 5.67529e-06 8.02064e-05
51 1 8.46694 6.43308 1.97195 -9.77804e-06 1.19933e-05 2.37606e-05 2.83552e-05
52 1 8.91022 4.31376 9.97295 -1.45725e-05 4.58933e-05 4.66721e-05 6.70585e-05
53 1 8.09468 4.7973 7.71951 9.83453e-06 1.42569e-05 -8.35449e-06 1.92296e-05
54 1 9.0345 4.47057 4.93214 -5.88115e-05 -6.97606e-06 -3.62341e-05 6.94289e-05
55 1 9.83267 4.40776 2.53292 3.75395e-05 4.21426e-05 1.04248e-05 5.73924e-05
56 1 9.21586 6.40766 11.259 3.90346e-05 -5.99735e-07 -2.32346e-05 4.54303e-05
57 1 10.2948 2.21894 10.543 3.66603e-05 2.23275e-06 1.99458e-06 3.67823e-05
58 1 9.67323 2.81031 8.21127 -4.50528e-05 2.60703e-05 -3.0819e-05 6.04916e-05
59 1 10.4656 2.7104 5.7597 -6.20478e-06 6.33891e-07 4.35736e-05 4.40177e-05
60 1 8.73378 2.42933 3.5799 -9.72241e-06 -1.01001e-05 -4.55186e-05 4.76285e-05
61 1 11.1645 0.795146 8.73495 1.04271e-05 -2.55458e-05 2.62787e-06 2.77168e-05
62 1 10.2072 0.757313 4.4138 1.4712e-05 -2.01995e-05 1.2572e-05 2.79735e-05
63 1 9.71372 2.11393 1.29008 1.76342e-06 -3.07968e-05 2.65897e-05 4.07255e-05
64 1 10.3735 10.6776 10.529 4.30937e-05 -8.14537e-06 1.77764e-05 4.73224e-05
65 1 10.0877 6.44513 3.88429 -4.80746e-05 1.0532e-05 -6.52822e-05 8.17549e-05
66 1 10.5834 8.49234 0.144023 -4.70036e-06 -2.70836e-05 2.41092e-05 3.65632e-05
67 1 1.57693 8.3345 11.2967 -3.14849e-05 -5.51283e-05 3.58236e-06 6.35866e-05
68 1 4.22885 8.21369 6.15994 1.21537e-05 -6.53338e-05 3.36524e-05 7.44896e-05
69 1 3.28936 8.38867 1.59216 -3.66177e-05 1.5914e-06 1.92615e-05 4.14053e-05
70 1 1.51045 4.52569 11.2256 -6.53443e-06 9.08003e-05 -2.15443e-05 9.35498e-05
71 1 11.3797 4.33748 9.38683 4.82745e-05 -6.19109e-06 -1.0286e-05 4.9745e-05
72 1 1.68116 4.7525 6.67026 -4.61016e-05 -1.70268e-05 4.26912e-07 4.91472e-05
73 1 2.4986 4.52507 4.09482 3.69068e-06 -0.000149819 -2.65737e-05 0.000152202
74 1 1.90413 6.38162 1.06556 9.31478e-06 -1.80596e-05 -6.38306e-06 2.12993e-05
75 1 2.40359 2.55479 0.429148 1.47372e-05 -7.95263e-05 -1.33069e-06 8.08912e-05
76 1 1.93459 2.73139 9.66424 -4.51484e-05 5.93096e-06 -6.49728e-06 4.59974e-05
77 1 3.11477 2.75294 7.30084 -1.13637e-05 1.77863e-05 -2.96847e-05 3.64234e-05
78 1 1.48202 2.72493 5.32316 -1.00305e-05 8.41203e-05 -2.44845e-05 8.81835e-05
79 1 3.29458 4.43807 1.68637 -3.96493e-06 3.31349e-05 2.72705e-05 4.30966e-05
80 1 3.45082 0.943968 10.4274 3.55286e-05 -6.14558e-05 5.55803e-05 9.01569e-05
81 1 4.53407 0.756344 7.8499 1.64627e-05 -3.72593e-06 -3.04016e-05 3.4773e-05
82 1 2.85368 0.761554 5.95644 2.1133e-06 1.14866e-05 -4.4241e-05 4.57567e-05
83 1 2.27555 2.51496 2.84785 -1.88352e-05 5.84007e-05 -2.82808e-05 6.75663e-05
84 1 0.587448 1.16627 1.64099 2.31291e-05 -2.36666e-05 -7.99791e-05 8.65547e-05
85 1 3.64979 0.760258 3.64501 3.33512e-05 -2.67814e-05 6.46249e-05 7.74978e-05
86 1 0.641947 10.0659 7.66184 2.4689e-05 3.62835e-05 5.97665e-05 7.4149e-05
87 1 1.19619 0.750389 4.02423 4.33304e-05 -7.95377e-05 -6.42612e-06 9.08023e-05
88 1 0.12458 6.43035 10.72 2.4396e-05 -2.17262e-05 -1.98742e-05 3.82384e-05
89 1 0.202901 6.48742 5.83933 5.59337e-06 8.70721e-05 3.10838e-05 9.26231e-05
90 1 0.835734 8.39122 2.04847 6.01902e-05 -2.25397e-06 -1.88697e-05 6.3119e-05
91 1 0.0465331 4.54523 4.55493 4.12628e-05 -0.000107928 -1.79246e-05 0.000116929
92 1 10.9158 6.38944 1.48283 4.49894e-05 -2.44926e-05 4.17858e-05 6.61059e-05
93 1 10.6268 4.26234 0.171272 2.50797e-06 1.33342e-05 -1.6661e-05 2.14867e-05
94 1 0.63277 2.79894 7.6574 4.81802e-05 3.56343e-05 -2.92086e-05 6.66654e-05
95 1 0.834065 4.30158 1.99837 -2.45417e-05 -1.76065e-05 1.85336e-05 3.5437e-05
96 1 0.870845 1.04644 10.9353 -4.52475e-05 -8.43116e-05 2.25798e-05 9.8314e-05
97 1 2.10886 0.740777 8.30902 -3.10983e-05 4.93141e-06 -1.37068e-05 3.43409e-05
98 1 1.08814 6.39722 3.40821 -1.6657e-05 9.41655e-06 5.45775e-08 1.91345e-05
99 1 2.72361 6.48966 5.35971 1.7645e-05 3.10844e-05 2.52672e-05 4.37724e-05
100 1 0.98229 6.41771 8.34829 -9.68866e-06 -1.17191e-05 -1.23757e-05 1.96052e-05
101 1 2.67002 6.41797 10.317 6.46622e-06 2.96389e-08 2.24383e-05 2.33515e-05
102 1 2.49081 8.41911 3.96232 -3.37459e-05 -5.19327e-05 -6.06055e-06 6.22296e-05
103 1 4.69957 10.2733 2.33764 7.21789e-05 3.84954e-05 2.87777e-05 8.67171e-05
104 1 5.06969 6.31948 9.89514 3.00167e-05 3.66393e-05 3.52789e-05 5.90596e-05
105 1 3.61746 6.5924 7.76453 7.44004e-06 -2.93429e-05 5.71212e-06 3.08056e-05
106 1 5.20719 6.43743 4.96757 -5.11998e-05 9.84934e-05 6.61986e-05 0.000129246
107 1 3.56056 6.44103 2.99848 8.13219e-07 -6.20773e-07 -7.05189e-06 7.12571e-06
108 1 5.7482 8.47045 1.1438 -1.65398e-05 7.20489e-05 2.11352e-05 7.6885e-05
109 1 3.98234 4.24575 10.995 5.00018e-05 -5.23001e-06 -3.59642e-05 6.18139e-05
110 1 2.94984 4.62679 8.78698 -3.84385e-05 -1.78539e-05 9.24118e-06 4.33783e-05
111 1 4.15498 4.72033 6.25796 -3.33945e-05 -3.09468e-05 -2.27852e-05 5.09123e-05
112 1 4.96782 4.54884 3.66245 4.25231e-05 -5.98293e-05 1.71134e-05 7.537e-05
113 1 4.36371 6.3714 0.609803 4.02734e-06 1.43894e-05 5.40795e-05 5.61059e-05
114 1 5.34746 2.15189 0.00294655 7.59268e-06 5.07311e-05 1.72699e-05 5.41253e-05
115 1 4.63634 2.70065 9.28423 -2.78751e-05 -2.15294e-05 4.19865e-05 5.48033e-05
116 1 2.55028 8.42272 8.95996 -1.1741e-06 -5.20437e-05 6.70361e-06 5.24868e-05
117 1 5.58783 2.74683 6.83183 -2.20962e-06 2.55693e-05 -1.92751e-05 3.20967e-05
118 1 5.76079 4.3719 1.16161 -6.78706e-06 -2.09655e-05 1.62292e-05 2.73679e-05
119 1 6.13427 0.772205 9.76024 5.74865e-05 1.45568e-05 -3.42644e-05 6.84883e-05
120 1 6.99209 0.772713 7.36349 -4.96186e-05 -2.9157e-05 1.31028e-06 5.75661e-05
121 1 5.31441 0.764688 5.4851 -1.66403e-05 4.97173e-05 -3.39456e-06 5.25379e-05
122 1 4.73351 2.6007 2.39188 -7.20064e-06 0.00013221 5.49959e-05 0.000143374
123 1 3.66627 0.820956 1.27003 2.13808e-05 -7.85769e-07 -4.67307e-05 5.13956e-05
124 1 6.05335 0.777029 3.09028 4.30769e-05 -0.000154679 -3.03057e-05 0.0001634
125 1 3.14702 10.067 7.29944 -3.55573e-05 -8.29214e-06 -3.39446e-05 4.98529e-05
126 1 1.49696 10.1279 5.30122 -1.1126e-06 3.09253e-05 -2.77253e-05 4.15488e-05
127 1 0.58037 10.3468 0.640304 -1.23618e-05 -4.01266e-05 -2.0071e-05 4.65381e-05
128 1 11.3815 8.49738 9.40521 1.96966e-05 4.67698e-05 1.29721e-05 5.23798e-05
129 1 1.69698 8.14687 6.67865 -5.13827e-05 1.52193e-05 -6.78641e-05 8.64717e-05
130 1 0.0490598 8.39003 4.44285 4.03566e-05 -2.91605e-05 -4.40831e-05 6.65005e-05
131 1 2.21243 10.4461 2.54017 -1.58541e-05 -1.71698e-05 4.53198e-05 5.09906e-05
132 1 3.94129 2.73701 4.90634 -1.47228e-05 -1.68721e-05 -3.93661e-05 4.52893e-05
133 1 9.67455 10.0796 8.22789 -2.86493e-05 5.39174e-05 -7.43288e-06 6.1507e-05
