ITEM: TIMESTEP
0
ITEM: NUMBER OF ATOMS
129
ITEM: BOX BOUNDS pp pp pp
0.0000000000000000e+00 1.1464695000000001e+01
0.0000000000000000e+00 1.1317634999999999e+01
0.0000000000000000e+00 1.1648808000000001e+01
ITEM: ATOMS id type x y z fx fy fz v_fmag
1 1 1.03012 1.08017 10.1427 -2.2728e-05 2.752e-05 2.39309e-05 4.29721e-05
2 1 8.35015 2.79575 6.37448 -3.1846e-05 2.23299e-05 -1.03676e-05 4.02527e-05
3 1 9.18064 1.76315 4.29624 1.58272e-05 5.74268e-06 7.66402e-05 7.84678e-05
4 1 8.88536 2.55311 0.793019 1.24223e-05 -1.12792e-05 7.42252e-05 7.60981e-05
5 1 7.98698 0.262578 0.076992 3.36974e-05 -2.37759e-05 1.21986e-05 4.30072e-05
6 1 0.0602829 10.1085 9.52067 2.51186e-05 -3.17203e-05 -1.58139e-05 4.3442e-05
7 1 9.15235 0.32543 6.2814 -5.5188e-05 -1.98048e-05 5.97702e-05 8.37283e-05
8 1 9.37985 0.62601 2.15951 -2.69769e-06 -3.15401e-05 1.09452e-05 3.34941e-05
9 1 6.26569 9.65881 0.0227719 1.8801e-05 2.04488e-05 -5.28867e-05 5.9738e-05
10 1 7.36692 10.2393 7.67223 -6.4284e-05 3.15307e-06 2.3122e-06 6.44028e-05
11 1 7.54204 11.1799 4.24769 -3.7348e-05 -5.70985e-06 -7.0216e-06 3.84288e-05
12 1 6.35231 7.22382 11.2689 0.000278858 -1.50977e-05 1.90517e-05 0.000279916
13 1 7.33303 8.61928 9.52503 2.60264e-05 -4.80974e-05 -1.93375e-05 5.80058e-05
14 1 5.87687 8.20315 7.40761 5.89083e-06 -3.88213e-05 -4.67083e-05 6.10201e-05
15 1 8.19506 1.26466 8.36864 1.02751e-05 -1.53704e-05 -2.26205e-05 2.9215e-05
16 1 8.28438 9.33465 5.64242 -1.16571e-05 -6.22664e-05 -1.07867e-05 6.426e-05
17 1 7.63174 10.1118 2.0548 1.51324e-06 3.22009e-07 -2.69972e-06 3.1116e-06
18 1 8.88737 5.74458 8.74505 -1.05049e-05 -1.42761e-05 6.79037e-05 7.01788e-05
19 1 6.8277 5.60609 7.16791 -3.76347e-05 -5.13872e-05 -1.19864e-05 6.48127e-05
20 1 6.87678 7.23276 5.37488 -8.00782e-06 -6.01422e-05 -6.11093e-05 8.61136e-05
21 1 6.80087 6.20786 3.19843 2.42469e-05 -2.46849e-05 5.00584e-06 3.49616e-05
22 1 7.65526 7.69374 1.5271 -3.71055e-05 -2.95621e-05 -0.000111714 0.00012137
23 1 6.55363 4.7472 10.5713 3.79266e-05 -3.25832e-06 4.55896e-06 3.83383e-05
24 1 4.967 4.20597 8.53572 -5.03638e-05 2.07873e-05 -7.13502e-06 5.49502e-05
25 1 7.74371 4.74425 5.00776 -1.47372e-05 -1.37117e-05 -5.39051e-05 5.75409e-05
26 1 5.59249 4.04174 2.96552 4.9887e-05 6.42959e-06 -1.17437e-05 5.16523e-05
27 1 7.8629 5.1858 1.09163 8.65815e-06 -6.68622e-05 1.05886e-05 6.82469e-05
28 1 7.254 2.20527 10.4535 -2.63927e-06 -1.66496e-05 1.82349e-05 2.48332e-05
29 1 5.68584 1.75654 8.44923 2.83982e-05 5.53544e-05 3.38628e-05 7.08326e-05
30 1 6.2711 8.9382 3.77309 -3.4193e-05 -4.03299e-06 9.7039e-06 3.57714e-05
31 1 9.80066 1.66243 10.3585 7.9897e-06 -3.529e-05 4.81444e-05 6.02254e-05
32 1 10.3098 4.62674 1.07355 6.16275e-05 -9.33458e-07 -1.31073e-05 6.30128e-05
33 1 8.20079 3.53926 2.87516 -2.22577e-07 -3.75398e-06 1.62455e-05 1.66751e-05
34 1 10.7212 7.18929 7.37329 -2.03821e-05 -4.68988e-06 -8.38794e-06 2.25341e-05
35 1 0.858573 4.32522 6.56633 -3.27233e-05 -3.22769e-05 -5.35581e-05 7.05768e-05
36 1 11.0075 7.59212 3.33805 -1.02637e-05 3.38504e-05 2.34276e-05 4.2427e-05
37 1 11.3548 3.68672 10.5665 9.8375e-06 -2.8757e-05 -7.17507e-06 3.12285e-05
38 1 9.86087 3.21613 8.4811 -1.02428e-05 3.01354e-05 1.45193e-05 3.49838e-05
39 1 0.379686 5.06738 3.07756 2.38573e-05 8.38435e-06 1.03293e-05 2.7316e-05
40 1 1.31391 4.11109 1.01102 1.50623e-05 3.74537e-05 -1.27543e-05 4.23359e-05
41 1 10.7448 0.75411 8.26829 -3.50225e-06 -2.66021e-05 1.84203e-05 3.2546e-05
42 1 10.7941 2.31342 6.33162 -4.44459e-05 -8.06022e-05 -3.61292e-06 9.21152e-05
43 1 0.197518 1.23909 4.28348 -2.38273e-05 4.34781e-05 1.51714e-05 5.18484e-05
44 1 10.4551 11.0394 0.00315943 -2.04367e-05 2.80236e-05 8.53e-06 3.57175e-05
45 1 10.7845 2.76862 2.60004 -6.46542e-06 -1.49207e-06 1.19189e-05 1.36414e-05
46 1 8.67841 9.1427 11.5317 7.34227e-06 -2.33209e-05 7.33825e-06 2.55269e-05
47 1 9.96453 9.6815 7.51829 -1.76727e-05 -2.36256e-05 -2.10697e-06 2.95793e-05
48 1 10.04 10.5897 4.15429 -7.53219e-06 1.04878e-05 1.83795e-05 2.24618e-05
49 1 8.49119 6.65745 10.8845 -4.92938e-05 -9.60604e-06 4.02842e-05 6.43814e-05
50 1 9.77653 8.15853 9.4347 -3.15513e-05 -2.39242e-05 3.45924e-05 5.25784e-05
51 1 8.27639 7.70869 7.45949 -3.71548e-05 -5.07463e-05 -2.16192e-05 6.65061e-05
52 1 10.9255 8.73578 5.45823 -3.55855e-05 1.1726e-05 -7.27626e-06 3.81677e-05
53 1 8.67217 8.28064 3.56744 6.75108e-05 -1.2849e-05 5.675e-05 8.91256e-05
54 1 10.0034 9.52113 1.93805 2.86984e-05 -1.96108e-05 4.02655e-05 5.3193e-05
55 1 0.00243965 5.22626 8.63773 -1.53664e-05 -1.54942e-06 2.8996e-05 3.28526e-05
56 1 9.7698 4.87809 6.72549 -2.17318e-05 -4.73807e-05 -1.26151e-05 5.36316e-05
57 1 9.2749 6.80625 5.37326 -3.18301e-05 1.77544e-05 -8.04983e-05 8.83649e-05
58 1 9.29577 5.74631 3.16649 5.11403e-05 -7.69177e-05 2.34071e-05 9.52867e-05
59 1 9.84224 7.09504 1.23125 3.65945e-05 2.13303e-05 -2.24293e-05 4.79293e-05
60 1 8.94114 4.15749 10.6156 -2.8343e-05 2.22613e-05 1.0051e-05 3.74154e-05
61 1 7.42839 3.67684 8.49874 5.46495e-06 3.59097e-05 4.11722e-05 5.49047e-05
62 1 10.2792 3.99961 4.61305 2.4541e-05 -1.06402e-06 4.77466e-05 5.36948e-05
63 1 5.86655 3.29514 6.46708 1.89962e-05 2.47188e-05 1.53138e-05 3.47331e-05
64 1 10.7561 6.13272 10.7478 -2.49445e-05 -9.38909e-06 2.2606e-05 3.49487e-05
65 1 6.69667 2.37623 4.40392 -1.0781e-05 9.25751e-06 2.4097e-05 2.79749e-05
66 1 5.46966 0.79085 0.197324 2.15769e-05 7.29541e-06 -2.85297e-05 3.65066e-05
67 1 1.15683 10.1069 4.08767 -1.39462e-05 -7.98088e-06 -8.71901e-06 1.82815e-05
68 1 1.90334 8.12143 11.4274 0.000124538 -1.76746e-05 -2.31736e-05 0.000127902
69 1 2.51695 9.55517 9.53603 -3.01231e-05 2.56962e-05 -4.05925e-05 5.67049e-05
70 1 0.736895 7.62253 9.34768 -2.80747e-05 -1.47835e-05 -6.26933e-05 7.02651e-05
71 1 2.81763 10.5447 6.06244 -2.32317e-05 6.26738e-05 3.57434e-06 6.69365e-05
72 1 1.91112 6.99734 3.2623 7.52783e-05 1.33241e-05 2.55515e-05 8.06054e-05
73 1 3.15332 8.54148 1.89842 -2.06761e-05 -2.74918e-05 -3.50406e-05 4.91034e-05
74 1 3.17362 7.08208 9.25112 3.29657e-05 1.66988e-05 6.50622e-06 3.75222e-05
75 1 1.71341 6.65552 7.25239 -1.58481e-05 2.08675e-05 -1.98886e-05 3.28964e-05
76 1 1.99459 8.19082 5.34142 -2.13516e-06 8.35444e-06 2.54826e-05 2.6902e-05
77 1 0.215458 6.2317 5.24439 3.10085e-05 -3.76285e-05 1.78875e-05 5.19365e-05
78 1 2.98649 6.04608 1.14281 1.74336e-06 4.12674e-05 -1.70167e-05 4.46722e-05
79 1 1.65428 5.66211 10.6869 9.36634e-06 -1.61089e-05 -3.48487e-06 1.8957e-05
80 1 1.92417 0.132207 8.12589 -2.03455e-05 -5.0699e-05 1.70649e-05 5.72323e-05
81 1 2.69682 5.67696 5.16462 -1.45149e-05 -1.64523e-05 -1.47724e-05 2.64497e-05
82 1 2.96638 4.49003 3.01993 -1.93461e-05 7.55738e-05 -5.03128e-05 9.28281e-05
83 1 3.81772 3.62422 0.937874 9.16004e-06 5.62703e-05 -6.05784e-07 5.70142e-05
84 1 2.31624 3.23151 10.5625 -9.7592e-06 2.00716e-05 -3.8834e-05 4.47905e-05
85 1 0.822604 2.77213 8.43644 6.6367e-06 -3.69359e-05 1.95964e-05 4.23358e-05
86 1 1.76031 1.79885 6.35537 -3.74961e-05 3.00385e-05 -9.14901e-06 4.89078e-05
87 1 1.8809 2.17126 2.38081 -4.58631e-06 8.41839e-06 -1.90953e-05 2.13666e-05
88 1 0.135193 1.90571 0.539268 1.33361e-05 4.57154e-05 7.54001e-06 4.82141e-05
89 1 3.82925 0.389988 9.90365 3.89308e-05 8.2249e-06 4.85353e-05 6.27609e-05
90 1 0.2153 11.0895 6.20397 2.28719e-05 1.56144e-06 1.02589e-06 2.29481e-05
91 1 0.296094 0.104432 2.15576 -3.08493e-06 1.78094e-05 3.54482e-05 3.97903e-05
92 1 1.02524 9.13224 7.42789 1.35992e-05 -7.90114e-06 2.63757e-05 3.0709e-05
93 1 0.873438 9.02274 1.9079 3.21063e-05 1.42391e-05 4.49003e-06 3.5408e-05
94 1 0.648342 6.56938 1.16573 2.4594e-05 3.35763e-05 4.50559e-06 4.18633e-05
95 1 1.44928 3.34739 4.49069 1.79075e-05 9.06026e-06 4.84614e-05 5.24526e-05
96 1 1.42112 10.559 0.0189827 6.35915e-05 1.45543e-05 3.43498e-05 7.37266e-05
97 1 2.72295 10.998 2.15156 3.89728e-05 4.58757e-05 -7.64544e-05 9.73074e-05
98 1 4.19267 1.32317 6.3953 -1.76128e-05 1.95639e-05 1.84513e-05 3.21467e-05
99 1 9.00357 10.6274 9.59942 2.54651e-06 -3.37647e-06 -2.03882e-06 4.69489e-06
100 1 6.65589 0.858849 6.36061 -7.15108e-06 -1.85219e-05 3.62315e-05 4.13149e-05
101 1 6.94889 1.2374 2.24072 -8.60525e-06 9.22261e-06 3.12186e-05 3.36706e-05
102 1 3.83877 10.0711 0.0663357 2.6954e-05 -2.12961e-05 -2.82658e-05 4.4486e-05
103 1 4.70055 10.7675 7.86945 -2.59587e-05 2.821e-05 -4.12722e-05 5.63299e-05
104 1 5.12673 0.458458 4.26629 -5.32611e-05 -7.94469e-06 -3.23179e-05 6.28037e-05
105 1 4.13442 7.60579 11.3781 -0.000243228 0.00010029 -1.67243e-05 0.000263624
106 1 4.92401 9.04352 9.58733 3.38884e-05 -5.15279e-06 -2.51635e-05 4.25226e-05
107 1 3.46933 8.61539 7.39032 -4.59987e-06 2.08007e-05 -1.66346e-05 2.70285e-05
108 1 5.57682 9.96882 5.79696 -0.000100457 -7.43352e-06 3.95014e-05 0.0001082
109 1 3.73822 9.62565 3.9885 1.04375e-05 3.83956e-05 -2.14471e-05 4.52012e-05
110 1 5.18989 10.5788 2.14287 -1.85713e-05 4.92075e-05 3.65113e-05 6.40262e-05
111 1 5.68103 6.5529 9.1327 -2.16188e-05 -1.25749e-05 -5.73707e-05 6.25852e-05
112 1 4.21595 6.134 7.17453 -3.47416e-06 -6.1048e-06 -2.8428e-05 2.92829e-05
113 1 4.46117 7.70556 5.30476 -3.26506e-06 -4.71539e-06 -5.93647e-05 5.96411e-05
114 1 4.3333 6.53682 3.21629 3.47121e-05 3.74299e-06 -3.70666e-05 5.09203e-05
115 1 5.40287 8.10901 1.74235 6.93873e-05 2.9927e-05 1.91982e-05 7.79666e-05
116 1 4.08437 5.1819 10.6318 -3.42063e-05 1.72249e-05 -1.80136e-05 4.23233e-05
117 1 2.49486 4.72495 8.58378 2.1412e-05 -2.01845e-05 1.6386e-05 3.36807e-05
118 1 5.21989 5.21068 5.10807 -1.7596e-05 3.71798e-06 -2.4921e-06 1.81564e-05
119 1 4.11266 2.86238 4.46413 -2.76305e-05 1.69592e-05 -5.11927e-05 6.0595e-05
120 1 5.4062 5.59458 1.10678 -6.60759e-06 -4.95768e-06 -1.08424e-05 1.36307e-05
121 1 4.77782 2.73334 10.5215 3.00321e-05 1.41585e-05 -3.94701e-05 5.15779e-05
122 1 3.23549 2.2705 8.48276 3.45632e-05 3.19146e-05 2.10785e-05 5.15506e-05
123 1 3.36374 3.78242 6.52731 -1.74434e-05 -4.68231e-06 1.92002e-05 2.63599e-05
124 1 2.6787 0.856427 4.2714 5.71408e-06 1.01604e-05 1.81215e-06 1.17969e-05
125 1 4.43006 1.71757 2.29552 1.96886e-05 5.54747e-06 3.9148e-06 2.08265e-05
126 1 2.88309 1.30526 0.301343 3.47365e-05 6.99225e-08 1.6008e-05 3.82477e-05
127 1 6.43771 11.1414 9.74165 -9.29609e-06 8.40829e-06 -8.08471e-06 1.49157e-05
128 1 6.35071 3.15763 0.85835 -9.36516e-06 1.84516e-05 2.76327e-05 3.45215e-05
129 1 11.0638 8.62661 11.4503 -6.01155e-05 -4.69658e-05 1.53498e-05 7.78157e-05
