ITEM: TIMESTEP
0
ITEM: NUMBER OF ATOMS
127
ITEM: BOX BOUNDS pp pp pp
0.0000000000000000e+00 1.1436527999999999e+01
0.0000000000000000e+00 1.1745825000000000e+01
0.0000000000000000e+00 1.1261291999999999e+01
ITEM: ATOMS id type x y z fx fy fz v_fmag
1 1 2.58183 10.5562 11.0995 -6.31458e-05 1.91051e-05 -0.000142023 0.000156598
2 1 7.83443 3.88878 7.54647 3.65692e-05 -6.15874e-06 1.42039e-05 3.97113e-05
3 1 9.38091 4.91485 5.7824 1.5522e-05 -1.03787e-05 -7.8131e-06 2.02409e-05
4 1 6.21861 2.86525 3.71018 7.40654e-05 -3.78113e-05 9.52042e-06 8.37019e-05
5 1 7.78264 3.90369 1.92316 1.10114e-05 5.71571e-06 -7.04987e-06 1.42696e-05
6 1 7.37032 11.4456 0.591747 -7.11721e-05 3.35626e-06 -4.36019e-05 8.35335e-05
7 1 10.5099 1.69964 8.41793 -2.33989e-05 3.6749e-05 1.4206e-06 4.35891e-05
8 1 8.04222 1.40692 7.967 -7.07224e-06 4.9878e-06 3.87016e-05 3.96574e-05
9 1 7.13461 2.11009 5.81502 -9.32721e-06 -4.22545e-05 -3.18442e-05 5.37261e-05
10 1 7.7975 1.43219 2.27536 1.82444e-05 -1.25316e-05 3.41489e-05 4.06945e-05
11 1 6.7621 2.20813 0.0726981 3.47442e-05 -9.77783e-06 1.43765e-05 3.88516e-05
12 1 8.81017 0.666999 4.44257 1.20353e-05 -1.17834e-05 -1.22027e-05 2.07991e-05
13 1 7.27976 11.3817 6.19801 2.18322e-05 -1.49546e-05 -1.8227e-05 3.21327e-05
14 1 5.73704 10.4075 2.36633 -6.57419e-05 -1.12427e-05 -2.2763e-05 7.04738e-05
15 1 8.5036 5.68207 9.27745 -7.42372e-07 -1.41871e-05 1.39961e-05 1.99428e-05
16 1 4.23306 9.20396 9.75192 -1.5517e-05 8.44799e-06 -3.89563e-05 4.27754e-05
17 1 5.03856 8.55479 6.29006 5.61569e-06 -3.18101e-05 3.96634e-05 5.11527e-05
18 1 6.60384 9.64442 4.50691 5.05739e-05 -2.75835e-05 1.02025e-05 5.85036e-05
19 1 5.89014 7.88632 2.84723 -1.25494e-05 -2.83299e-05 -2.13279e-05 3.76158e-05
20 1 10.0039 9.18801 1.44061 -6.51183e-05 -1.27364e-05 1.24323e-06 6.63638e-05
21 1 4.34743 6.7445 10.2483 -1.24647e-05 3.10675e-05 -2.20992e-05 4.01115e-05
22 1 5.92918 7.80132 8.44244 1.00766e-05 -1.69135e-05 -1.45501e-05 2.44808e-05
23 1 5.2216 6.01475 6.80468 3.85463e-05 -1.17276e-05 -1.9289e-05 4.46702e-05
24 1 6.77106 7.1237 4.98696 -9.92735e-06 -8.55746e-06 9.27902e-06 1.60587e-05
25 1 6.0612 5.37841 3.31041 2.12817e-05 2.12098e-05 4.45494e-08 3.00461e-05
26 1 7.62027 6.41954 1.50824 1.38264e-05 6.41646e-06 2.25603e-06 1.54088e-05
27 1 4.51178 4.24523 10.7641 1.83078e-05 -1.90076e-06 -3.04517e-05 3.55822e-05
28 1 6.08811 5.27566 8.93957 4.2273e-05 2.11611e-06 2.77361e-05 5.06041e-05
29 1 5.45559 3.47303 7.34633 -6.5226e-06 -5.12783e-05 1.38438e-05 5.35132e-05
30 1 6.63695 9.65223 10.1564 3.99828e-07 3.53679e-05 4.84556e-05 5.99916e-05
31 1 6.94514 4.608 5.42769 -5.81766e-08 -1.74471e-05 -1.85926e-05 2.54969e-05
32 1 8.50319 3.15974 9.72395 7.399e-05 2.91697e-06 -3.52847e-05 8.20246e-05
33 1 8.50314 5.65416 3.6387 7.74015e-06 -2.0976e-05 -3.58819e-06 2.26446e-05
34 1 9.10235 9.94599 10.5703 -2.94795e-05 2.08323e-05 1.12708e-05 3.78161e-05
35 1 9.9027 9.20996 7.0641 -2.95428e-05 -2.26706e-05 8.63083e-06 3.8226e-05
36 1 10.7317 8.43973 3.58107 -2.8844e-05 1.2489e-05 -1.78651e-06 3.14824e-05
37 1 9.20362 7.44366 10.9856 -1.06701e-05 3.14734e-05 -1.07286e-05 3.49217e-05
38 1 10.0718 6.70829 7.49425 -1.39232e-05 2.99963e-05 1.47079e-05 3.61934e-05
39 1 10.9374 5.94938 3.99287 -2.41756e-05 1.86621e-05 9.12214e-06 3.18739e-05
40 1 0.214763 7.72541 0.053449 -1.16171e-05 2.87835e-05 1.9196e-05 3.64957e-05
41 1 9.36114 4.92753 0.146151 1.17626e-05 1.12586e-05 1.48546e-05 2.20402e-05
42 1 10.2237 4.19262 7.95953 -2.24351e-05 -1.46816e-06 6.95806e-06 2.35352e-05
43 1 8.67597 3.15044 4.05588 1.64686e-05 -1.93841e-05 -2.81928e-06 2.55911e-05
44 1 10.2373 4.17362 2.28246 6.4981e-06 3.53007e-05 -1.41638e-05 3.85872e-05
45 1 0.098609 0.919999 10.6076 -2.56804e-05 3.18133e-05 1.95945e-05 4.53378e-05
46 1 9.58541 2.41979 6.21732 -2.23684e-05 1.23742e-05 1.10613e-05 2.78535e-05
47 1 10.0624 6.67319 1.85213 -3.41191e-05 2.11683e-05 -1.27283e-05 4.21215e-05
48 1 11.1261 3.45333 4.44091 1.58603e-05 1.96764e-05 1.95855e-05 3.19734e-05
49 1 9.41408 2.4226 0.582877 6.10446e-05 -2.30548e-06 1.50088e-05 6.29048e-05
50 1 0.175934 10.1928 11.0714 -3.49529e-06 7.38799e-06 1.14985e-05 1.41073e-05
51 1 8.19474 10.6729 8.39727 2.16248e-05 4.1382e-06 1.608e-05 2.7264e-05
52 1 8.26367 10.6902 2.72531 -4.22513e-05 -3.83095e-05 2.06384e-05 6.06526e-05
53 1 6.76085 7.15692 10.6193 -1.4311e-05 -3.02309e-05 5.88127e-06 3.39603e-05
54 1 8.96394 0.688624 10.1272 -1.72887e-05 2.68816e-05 1.13197e-05 3.39066e-05
55 1 7.48307 8.88962 6.66558 -2.58028e-05 -1.36302e-05 -4.80295e-05 5.61996e-05
56 1 9.04126 9.93644 4.88906 1.71536e-06 -2.2962e-05 3.65684e-06 2.33146e-05
57 1 8.32611 8.16871 3.19625 -2.76501e-05 -5.43784e-05 -2.12609e-05 6.46031e-05
58 1 6.91754 4.6829 11.0858 4.70928e-05 2.02061e-05 -2.31301e-05 5.6223e-05
59 1 8.3481 8.18145 8.8361 -4.77194e-06 -2.06095e-05 3.18172e-05 3.82081e-05
60 1 7.64741 6.38296 7.12669 3.25282e-05 2.83064e-05 -1.11149e-07 4.31201e-05
61 1 9.20034 7.42242 5.34624 -8.32967e-06 5.98644e-06 4.51812e-05 4.6331e-05
62 1 10.3535 1.68616 2.70986 5.14738e-05 1.86297e-05 -1.35636e-05 5.63967e-05
63 1 9.89089 11.7065 1.00248 -7.13285e-05 4.58613e-05 3.58912e-06 8.48758e-05
64 1 3.77989 2.57621 3.45474 -1.09199e-05 2.53173e-05 -5.63384e-05 6.27234e-05
65 1 4.9314 11.1114 0.215004 -2.19287e-05 2.01665e-05 0.000107335 0.000111393
66 1 3.67775 0.111497 3.56832 -1.85322e-05 3.43196e-06 -3.60303e-05 4.06621e-05
67 1 0.516901 2.68837 0.971873 3.57118e-05 2.23018e-05 -2.79277e-05 5.05239e-05
68 1 4.79978 11.067 5.78795 3.38601e-06 1.77962e-05 -9.41793e-06 2.04174e-05
69 1 3.16565 0.697125 7.29666 -3.63346e-06 -1.29103e-05 -1.82411e-06 1.35353e-05
70 1 11.4185 10.2525 5.29932 3.12421e-05 3.64723e-05 2.12916e-05 5.25322e-05
71 1 10.8401 10.9393 3.09391 -3.20459e-05 1.22953e-05 -3.37666e-07 3.43253e-05
72 1 10.7897 8.49042 9.20633 -1.54572e-05 5.01646e-05 2.05789e-05 5.63817e-05
73 1 0.89915 9.56142 7.38888 -2.2878e-05 2.48242e-06 -1.90878e-05 2.98983e-05
74 1 0.188841 7.77105 5.69083 -2.87007e-05 1.16213e-05 -1.94516e-06 3.10253e-05
75 1 1.62792 9.12665 3.62473 -5.51324e-06 -3.59691e-05 -4.95398e-06 3.67248e-05
76 1 1.04312 7.10528 2.19058 -7.10274e-06 -3.64093e-05 -9.48619e-06 3.82894e-05
77 1 5.03665 8.6125 0.694956 4.05768e-07 1.61003e-05 -8.06112e-06 1.80102e-05
78 1 10.9391 5.97148 9.63331 -1.67969e-07 7.56716e-06 1.04414e-05 1.28962e-05
79 1 2.23887 1.46922 5.23864 -1.72525e-05 3.95354e-06 -1.3761e-05 2.24198e-05
80 1 1.06335 7.05806 7.81914 1.43729e-05 5.30342e-05 -2.77106e-05 6.15393e-05
81 1 1.89834 6.44074 4.32145 4.66019e-07 -5.50755e-05 3.74192e-05 6.65862e-05
82 1 1.23179 4.54534 2.65542 2.35713e-05 -1.80044e-05 2.33794e-05 3.77673e-05
83 1 2.62612 8.12908 0.380467 -5.20899e-05 -2.32126e-05 -3.57154e-05 6.72887e-05
84 1 11.0467 3.43326 10.1094 3.48216e-05 3.24871e-05 -1.70039e-05 5.05677e-05
85 1 1.21794 4.54101 8.30818 1.5846e-05 7.40296e-06 1.78523e-05 2.4992e-05
86 1 0.57082 2.7823 6.64354 3.05299e-05 6.13371e-05 2.17266e-05 7.18774e-05
87 1 2.08814 3.91905 4.83237 5.82708e-05 6.65617e-07 1.75801e-05 6.08686e-05
88 1 0.368856 5.22587 0.508397 2.68353e-06 3.16384e-06 -3.3144e-05 3.34027e-05
89 1 1.64141 11.3207 9.09134 9.72176e-05 -1.76289e-05 0.000122727 0.000157556
90 1 1.58284 2.03492 8.82494 2.37648e-05 6.4495e-05 1.3276e-05 7.00044e-05
91 1 11.2725 0.975324 4.85142 1.58804e-05 -2.38439e-05 -4.32012e-06 2.89721e-05
92 1 1.20765 0.0535772 1.57697 1.927e-05 -1.18435e-05 1.57418e-05 2.75573e-05
93 1 10.6581 10.9623 8.84639 -5.52055e-05 1.35641e-05 -1.8413e-05 5.97551e-05
94 1 0.352482 5.27002 6.15605 2.78167e-05 1.12072e-05 2.08509e-05 3.65258e-05
95 1 5.33945 3.65784 1.63992 1.58104e-05 3.73694e-05 2.73195e-06 4.06682e-05
96 1 0.723379 0.310918 7.00596 -6.38296e-05 3.7295e-05 -7.23108e-05 0.000103412
97 1 2.67536 1.27086 11.047 1.83505e-05 -6.20812e-05 -2.12368e-05 6.81309e-05
98 1 6.48885 0.404525 9.70188 -1.36682e-05 4.74908e-05 5.69657e-05 7.54141e-05
99 1 5.61202 1.0175 7.57444 -6.2154e-05 -1.55026e-05 -5.62312e-05 8.52373e-05
100 1 4.68235 1.78225 5.50416 -4.78593e-06 -2.94931e-05 3.92354e-05 4.93169e-05
101 1 5.18033 1.19022 1.81445 2.52861e-05 -2.74075e-05 -1.79384e-05 4.13805e-05
102 1 2.95209 3.14398 1.32311 7.50871e-05 -2.10688e-06 5.45869e-05 9.2856e-05
103 1 6.27199 0.398533 4.01687 2.03103e-05 2.46531e-05 2.27022e-05 3.91877e-05
104 1 4.08059 11.6625 9.3412 -3.86433e-05 -3.95039e-05 -6.51665e-05 8.54432e-05
105 1 5.76091 10.302 7.96498 -1.90006e-05 -2.48699e-05 -8.00232e-06 3.23044e-05
106 1 2.34933 10.7588 5.4172 -2.14304e-05 1.46316e-05 2.28769e-05 3.45934e-05
107 1 3.26081 10.0287 1.99779 -9.52049e-06 -6.14475e-05 0.000134972 0.000148607
108 1 1.79355 8.81284 9.48448 1.32299e-06 4.26106e-05 3.95859e-05 5.81761e-05
109 1 3.30881 9.96475 7.5984 3.79213e-05 3.88415e-05 -4.298e-05 6.92385e-05
110 1 2.57596 8.26489 5.87414 2.08541e-06 -5.51989e-06 -1.33827e-06 6.05054e-06
111 1 4.13753 2.38163 9.22581 6.84486e-05 -6.06015e-06 1.38037e-05 7.0089e-05
112 1 4.13831 9.32398 4.14103 -6.62193e-05 -1.61301e-05 -4.77789e-05 8.32346e-05
113 1 7.49882 8.93575 1.05623 -8.22265e-05 1.33233e-05 -1.96288e-05 8.55804e-05
114 1 1.93725 6.32255 9.95383 4.07278e-06 2.53195e-05 -9.22076e-06 2.72523e-05
115 1 3.4841 7.46651 8.06512 -1.16296e-05 6.6716e-06 6.02105e-06 1.46973e-05
116 1 2.7746 5.69278 6.46616 -4.4533e-05 -1.28325e-05 -5.27685e-05 7.02309e-05
117 1 4.33944 6.78293 4.67352 -4.39885e-05 -1.20349e-05 3.56662e-06 4.57444e-05
118 1 3.6308 5.02529 3.01988 -4.57354e-06 -3.82653e-05 2.35555e-05 4.51665e-05
119 1 5.17921 6.12227 1.16812 -2.88581e-06 -9.01535e-06 -1.00462e-05 1.38033e-05
120 1 2.09047 3.8029 10.4446 4.98209e-05 -1.26567e-05 -6.96162e-05 8.65374e-05
121 1 3.64939 4.93463 8.61386 1.1292e-05 -1.37529e-05 -5.82823e-06 1.87248e-05
122 1 3.02284 3.16091 7.01057 1.97394e-05 -1.84557e-05 2.71212e-05 3.8286e-05
123 1 4.52578 4.26455 5.17502 -6.53035e-06 -3.48527e-05 -2.62626e-05 4.41258e-05
124 1 1.39879 1.99739 3.08675 4.04676e-05 -2.02644e-05 3.85721e-05 5.9465e-05
125 1 2.78167 5.6458 0.850845 3.14745e-05 1.76877e-06 2.0471e-05 3.75877e-05
126 1 3.4621 7.51462 2.54085 -3.49413e-05 -5.90485e-05 -2.14126e-05 7.18757e-05
127 1 9.7268 11.6975 6.6494 2.33591e-05 6.80407e-06 -2.44815e-05 3.4515e-05
