ITEM: TIMESTEP
0
ITEM: NUMBER OF ATOMS
136
ITEM: BOX BOUNDS pp pp pp
0.0000000000000000e+00 1.1396901000000000e+01
0.0000000000000000e+00 1.2680864000000000e+01
0.0000000000000000e+00 1.2228524999999999e+01
ITEM: ATOMS id type x y z fx fy fz v_fmag
1 1 2.39931 9.95489 1.55364 -1.4461e-06 -1.6628e-06 2.74743e-05 2.75626e-05
2 1 7.19343 1.94374 9.15044 6.59902e-07 5.41913e-06 5.33482e-06 7.633e-06
3 1 9.68133 2.73954 6.32805 -1.39922e-05 -5.57909e-06 1.77076e-05 2.32479e-05
4 1 8.13393 1.64384 4.5901 2.10323e-05 1.88312e-05 -2.64185e-06 2.8354e-05
5 1 9.22786 2.87951 2.50555 5.44207e-06 1.49847e-05 -1.62326e-05 2.27521e-05
6 1 7.67349 1.79695 0.78454 8.39043e-06 -3.54277e-06 -1.59469e-05 1.83645e-05
7 1 8.56052 0.457909 10.8224 -5.7771e-06 2.82019e-05 -2.38029e-06 2.88857e-05
8 1 10.5121 0.31499 6.53554 2.58463e-05 1.22795e-06 1.24613e-05 2.87198e-05
9 1 9.07976 0.250173 2.43314 7.60622e-06 1.79065e-05 2.30911e-05 3.01944e-05
10 1 6.97111 12.051 9.08917 -1.90872e-05 9.75852e-06 -1.01456e-05 2.37167e-05
11 1 6.44541 12.1366 5.20036 2.73995e-06 -1.29952e-05 -2.00357e-05 2.40378e-05
12 1 7.52356 11.9144 0.695466 -7.07511e-06 -1.11345e-05 2.43805e-05 2.77208e-05
13 1 8.36616 10.5687 10.7661 1.75625e-05 -1.7506e-05 2.19528e-06 2.48942e-05
14 1 6.77904 9.48953 9.04797 6.30192e-05 4.21995e-08 -1.68146e-05 6.52239e-05
15 1 7.81949 10.6873 6.90907 -1.40069e-05 -1.09271e-05 -3.90887e-06 1.819e-05
16 1 8.76172 3.02756 10.9074 1.04475e-05 3.14695e-06 2.03011e-05 2.30475e-05
17 1 6.22918 9.58183 5.16716 -3.38607e-05 -1.3079e-05 -1.53172e-05 3.93982e-05
18 1 7.35187 9.38931 0.692446 1.64087e-06 3.58389e-06 -1.61678e-06 4.26036e-06
19 1 8.20217 8.00831 10.7253 2.04042e-05 2.58423e-05 -2.12008e-05 3.91616e-05
20 1 6.51361 6.93488 9.02702 -3.43338e-06 -1.30437e-05 3.03038e-05 3.317e-05
21 1 7.61508 8.14245 6.8979 -5.66215e-07 1.5461e-05 -3.44722e-05 3.77848e-05
22 1 6.0013 7.06392 5.19031 -3.77106e-05 -1.43094e-05 3.26885e-06 4.04664e-05
23 1 8.65788 7.99887 2.42165 2.97165e-05 -2.43753e-05 2.95182e-06 3.85478e-05
24 1 4.63013 7.10979 1.10836 2.00578e-05 -1.52388e-05 -2.01641e-05 3.22665e-05
25 1 7.89437 5.44538 10.694 -1.05318e-05 8.04049e-06 -3.98155e-06 1.38355e-05
26 1 6.32653 4.35308 8.95164 -3.561e-06 -7.60964e-06 5.39982e-06 9.98726e-06
27 1 7.41427 5.57848 6.8527 1.47709e-06 4.00422e-07 -8.00507e-06 8.15005e-06
28 1 5.85535 4.50591 5.097 -1.74657e-05 -2.92103e-06 -1.98333e-05 2.65884e-05
29 1 6.92206 5.77583 3.00128 -2.54511e-05 2.23873e-06 2.0962e-05 3.30481e-05
30 1 5.39479 4.66069 1.28377 2.34004e-05 -7.89103e-06 8.77784e-07 2.47107e-05
31 1 6.3026 3.30274 11.343 3.57505e-06 -2.59941e-05 9.5755e-06 2.79315e-05
32 1 7.33698 10.6797 2.98633 -4.69368e-05 3.94719e-05 8.42905e-06 6.19043e-05
33 1 4.73878 2.21863 9.59238 2.56804e-05 1.51615e-05 -8.78607e-06 3.10894e-05
34 1 7.85854 4.39049 0.848284 1.27508e-05 1.46657e-05 -8.05892e-06 2.10384e-05
35 1 8.31422 4.23826 4.6604 2.30044e-06 2.78768e-06 7.92904e-06 8.71394e-06
36 1 0.276449 8.95799 8.18251 3.72171e-05 -3.78026e-05 -1.80323e-05 5.60296e-05
37 1 0.832189 8.81726 12.0425 8.93071e-06 1.38255e-05 1.69344e-05 2.36152e-05
38 1 0.069578 6.39695 8.14037 3.30356e-06 2.04253e-06 -4.52711e-06 5.96491e-06
39 1 10.9027 6.56396 4.31382 -5.16931e-06 -1.87805e-06 -1.38233e-05 1.48772e-05
40 1 9.50519 6.54278 0.193614 3.85757e-05 -3.15401e-05 -6.10513e-06 5.02009e-05
41 1 11.2472 3.82617 8.07997 -5.97146e-06 -3.17334e-05 -5.38946e-05 6.28275e-05
42 1 10.7709 3.97958 4.22733 1.94444e-05 -5.85122e-06 2.1708e-05 2.97247e-05
43 1 10.3238 4.10922 0.419838 3.72637e-06 -1.63212e-05 1.63287e-06 1.68207e-05
44 1 9.64823 1.67659 8.71226 -2.51705e-05 -2.86862e-06 -2.84599e-05 3.81019e-05
45 1 10.5956 1.37407 4.1582 9.74392e-06 1.46524e-05 2.56163e-05 3.10778e-05
46 1 10.133 1.51758 0.350947 -2.16104e-05 3.37667e-05 -2.89835e-06 4.01945e-05
47 1 11.0145 0.192653 10.3888 4.54745e-05 -3.53133e-05 1.32504e-05 5.90807e-05
48 1 9.42065 11.7834 8.65547 6.23069e-06 -3.87029e-05 -1.7514e-05 4.29357e-05
49 1 8.8928 11.8789 4.77222 -1.12962e-05 3.00963e-05 9.39651e-06 3.34916e-05
50 1 9.39204 5.50355 2.56403 -7.01315e-06 5.96164e-06 -3.00837e-05 3.14604e-05
51 1 9.95929 11.6485 0.238004 2.11296e-05 -5.15155e-06 6.41954e-06 2.26762e-05
52 1 9.22846 9.21708 8.62163 -7.23482e-05 6.58735e-06 2.28492e-05 7.6156e-05
53 1 10.264 10.437 6.51764 -1.78448e-05 2.22539e-05 5.51261e-06 2.90528e-05
54 1 8.73076 9.31539 4.72097 -5.4895e-06 3.01339e-05 3.41108e-05 4.58447e-05
55 1 9.81946 10.4224 2.52175 -1.88151e-05 -2.54862e-05 3.20951e-05 4.50961e-05
56 1 9.78792 9.09899 0.221182 -3.01137e-06 -1.22266e-05 -6.47057e-06 1.41572e-05
57 1 10.7101 7.72584 10.2819 1.91626e-05 -8.41947e-06 2.99036e-05 3.65009e-05
58 1 9.00083 6.66127 8.58553 1.58278e-05 6.18795e-06 -1.06776e-05 2.00704e-05
59 1 10.0614 7.8708 6.48402 -5.47979e-06 6.8866e-06 -1.32827e-05 1.59337e-05
60 1 8.44373 6.79512 4.75373 -8.41321e-07 -6.15894e-06 9.33014e-06 1.12112e-05
61 1 11.0983 7.62879 1.91167 6.86568e-06 3.87151e-06 -1.75672e-05 1.92544e-05
62 1 7.07095 6.83742 0.655635 -1.52994e-05 9.00508e-06 1.28142e-05 2.18944e-05
63 1 10.3479 5.16557 10.2612 3.0332e-06 -5.25969e-06 -1.46913e-05 1.58965e-05
64 1 8.78431 4.08491 8.51213 1.66482e-05 -4.25393e-06 4.07369e-05 4.42126e-05
65 1 9.8753 5.31694 6.41074 2.09564e-05 -9.67428e-06 3.17069e-07 2.30838e-05
66 1 10.8187 10.3045 10.3322 -3.81647e-05 3.41292e-05 1.67089e-05 5.38566e-05
67 1 7.22103 3.00141 6.76285 8.94898e-07 9.98193e-06 -1.50986e-05 1.8122e-05
68 1 5.67193 1.90929 5.02744 -5.05529e-05 -8.83112e-06 -2.2888e-05 5.61911e-05
69 1 6.76415 3.15 2.93835 -1.7387e-05 2.35462e-05 -4.63859e-06 2.96353e-05
70 1 2.06931 12.5739 9.96889 -4.92124e-06 -1.76407e-05 1.72155e-05 2.51353e-05
71 1 1.57153 0.0435632 6.10963 -6.17918e-06 2.84231e-05 1.76716e-05 3.40344e-05
72 1 1.19069 1.25417 12.1389 -3.39772e-07 -3.01742e-05 2.48764e-05 3.9108e-05
73 1 3.46374 11.103 11.6401 2.33395e-05 4.30271e-06 3.75855e-06 2.40286e-05
74 1 1.87414 9.97477 9.91841 2.63781e-05 1.86693e-05 -2.35864e-06 3.24023e-05
75 1 2.92937 11.2361 7.8059 2.40951e-05 -1.37117e-05 1.73727e-05 3.27169e-05
76 1 1.3235 10.1745 6.09213 -4.83534e-06 5.96964e-06 5.21943e-06 9.2876e-06
77 1 2.61929 12.4723 1.55159 -3.81638e-05 1.12147e-05 -2.12997e-06 3.98344e-05
78 1 1.013 11.3697 12.056 -1.36973e-05 -6.31106e-07 6.03053e-06 1.49794e-05
79 1 3.2763 8.55794 11.6326 9.1873e-07 6.00448e-06 -2.04604e-05 2.13431e-05
80 1 0.55153 6.24426 12.026 1.0919e-05 -1.38071e-05 8.44636e-06 1.95244e-05
81 1 2.71912 8.68348 7.75504 -5.15857e-06 4.50472e-06 2.01029e-05 2.12374e-05
82 1 1.11826 7.60295 6.04812 -3.38621e-05 2.78425e-05 4.3193e-06 4.40512e-05
83 1 3.70708 8.56217 3.32077 2.33509e-05 -2.32373e-05 -1.20578e-06 3.2965e-05
84 1 4.14291 0.792528 3.31105 1.27606e-05 8.0937e-06 -3.1733e-05 3.51472e-05
85 1 3.00138 5.99518 11.5922 -9.34472e-06 -3.85646e-05 -1.76205e-05 4.3417e-05
86 1 2.50936 6.10539 7.68725 -1.0983e-07 -6.50505e-06 -9.40149e-07 6.57356e-06
87 1 0.930757 5.04692 5.9576 1.40328e-05 1.39137e-05 -6.03845e-07 1.97706e-05
88 1 1.99203 6.31004 3.87659 -1.59602e-05 4.02447e-06 5.03218e-06 1.72118e-05
89 1 0.466615 5.18824 2.15325 -7.55396e-06 -8.85228e-06 8.08761e-06 1.41716e-05
90 1 1.38773 3.83397 12.212 2.92827e-05 2.26584e-06 -1.41942e-05 3.26203e-05
91 1 0.708215 1.40647 8.28438 1.60772e-05 -2.41685e-05 2.05519e-05 3.55664e-05
92 1 2.30187 3.5449 7.63598 1.26731e-05 5.00926e-06 2.9159e-06 1.39356e-05
93 1 0.742014 2.46527 5.89208 -2.24256e-05 -1.27445e-05 -1.04451e-05 2.78286e-05
94 1 1.83629 3.69665 3.80258 -2.3951e-05 1.07853e-05 -1.53572e-05 3.04273e-05
95 1 0.292515 2.57247 2.07805 -7.05454e-06 1.54951e-05 1.79228e-05 2.47203e-05
96 1 11.221 2.7661 10.4682 -1.33736e-05 2.0253e-05 -1.67193e-06 2.43276e-05
97 1 3.16082 1.12842 7.85413 2.19583e-05 -1.77303e-05 -1.57111e-05 3.23013e-05
98 1 1.66564 1.0827 3.73271 -1.29275e-05 -1.03814e-05 3.10646e-06 1.68684e-05
99 1 0.481162 11.5141 8.23536 -1.77924e-05 1.39728e-06 -1.53233e-05 2.35229e-05
100 1 1.42146 4.94528 9.82921 9.7596e-06 -1.813e-05 -1.17925e-05 2.37278e-05
101 1 5.60884 0.850052 7.40336 -7.38882e-06 1.00658e-05 -4.27941e-06 1.31996e-05
102 1 3.65066 0.998092 11.6914 -4.82792e-06 -1.74681e-05 1.80908e-05 2.56071e-05
103 1 2.75563 2.34333 1.65093 -1.54951e-05 -2.4218e-05 -1.67058e-05 3.3252e-05
104 1 5.21136 2.06475 1.21836 1.15117e-05 -2.0459e-05 9.11923e-06 2.51843e-05
105 1 6.10971 0.727849 11.2642 -9.00721e-06 -1.95071e-05 9.81844e-06 2.36232e-05
106 1 8.05697 0.57388 6.95842 3.40779e-06 1.64414e-05 -1.00248e-05 1.95558e-05
107 1 6.61202 0.520598 2.86775 1.35509e-05 2.06197e-05 -7.52516e-06 2.57959e-05
108 1 4.52471 12.3256 9.53283 1.32885e-05 1.66434e-05 3.46933e-06 2.15783e-05
109 1 4.0091 12.4228 5.66155 -1.17825e-05 1.44555e-05 -1.7758e-05 2.57514e-05
110 1 2.4264 11.3141 3.9002 -2.97592e-05 8.65962e-06 6.15523e-06 3.15989e-05
111 1 5.06746 12.1811 1.12516 2.90121e-05 -1.51134e-05 6.73719e-06 3.33992e-05
112 1 5.91859 10.8396 11.2113 -9.76076e-06 -1.70041e-07 1.3613e-05 1.67516e-05
113 1 4.3342 9.76623 9.48543 -6.35342e-05 -1.10407e-05 -8.60042e-06 6.50574e-05
114 1 5.3754 10.9604 7.35373 1.82633e-05 3.05381e-06 -1.37992e-06 1.85682e-05
115 1 3.77167 9.8702 5.6273 -2.53704e-05 -3.04223e-05 -2.46311e-06 3.96893e-05
116 1 4.85824 10.9499 3.41901 1.32961e-05 -1.0793e-05 -1.07409e-05 2.02149e-05
117 1 4.88071 9.65634 1.1357 2.35749e-05 1.06602e-05 1.13414e-06 2.58979e-05
118 1 5.72767 8.28776 11.1764 -4.72526e-08 -1.83677e-05 2.31602e-05 2.95596e-05
119 1 4.00305 7.21134 9.47577 2.69946e-05 1.95412e-05 -1.82305e-05 3.79858e-05
120 1 5.16299 8.40805 7.34167 -3.58849e-06 2.14251e-05 -1.80145e-06 2.17982e-05
121 1 4.30286 3.42213 3.37637 -1.17779e-05 1.3352e-05 7.08802e-06 1.91633e-05
122 1 3.20605 2.18126 5.46182 4.59872e-06 1.15736e-05 -9.85718e-07 1.24927e-05
123 1 4.76055 3.27185 7.1983 -8.54236e-06 -6.60082e-06 -2.51875e-06 1.10854e-05
124 1 2.27658 2.4998 10.0297 1.29137e-05 1.30909e-05 2.11588e-05 2.80327e-05
125 1 3.84567 3.57474 11.7772 4.77031e-06 -2.62953e-05 -3.86701e-05 4.70061e-05
126 1 2.93386 4.92595 1.72327 -4.13142e-06 1.19597e-05 -1.91097e-05 2.29191e-05
127 1 0.146613 12.6173 2.00826 2.23577e-05 1.64022e-05 1.07209e-06 2.77497e-05
128 1 4.45722 6.04983 3.44299 -2.61171e-05 8.58672e-06 1.22962e-05 3.0117e-05
129 1 4.95742 5.84386 7.28976 -1.98998e-05 2.10511e-05 9.22653e-06 3.0402e-05
130 1 3.87369 4.62418 9.38782 -2.48021e-06 -2.70604e-06 1.10623e-05 1.16554e-05
131 1 5.44428 5.72886 11.1375 -2.20342e-05 4.08568e-07 -1.97433e-05 2.95884e-05
132 1 2.18243 7.35198 1.51055 5.39646e-05 2.23429e-05 -1.38704e-05 6.00314e-05
133 1 6.20177 8.28865 2.89322 8.24841e-06 -1.04078e-05 2.75243e-07 1.32829e-05
134 1 3.56813 7.32749 5.62753 4.43199e-05 -1.57556e-05 -7.42198e-06 4.76191e-05
135 1 3.39301 4.7734 5.52665 1.33437e-05 1.00535e-05 7.93128e-06 1.84941e-05
136 1 11.3476 11.6316 4.39631 -4.83154e-05 2.22895e-06 7.55398e-06 4.89532e-05
