ITEM: TIMESTEP
0
ITEM: NUMBER OF ATOMS
124
ITEM: BOX BOUNDS pp pp pp
0.0000000000000000e+00 1.1400361000000000e+01
0.0000000000000000e+00 1.2098903999999999e+01
0.0000000000000000e+00 1.2816801000000000e+01
ITEM: ATOMS id type x y z fx fy fz v_fmag
1 1 0.299835 8.06474 6.59751 -3.25712e-05 -2.01059e-05 2.64285e-06 3.83682e-05
2 1 6.24879 3.59517 11.8338 4.362e-06 -3.32506e-05 -1.61864e-05 3.72375e-05
3 1 8.97072 4.60118 8.95212 1.52763e-05 -3.40709e-05 7.66168e-06 3.81168e-05
4 1 7.53817 3.55494 7.10998 3.07042e-06 1.02513e-05 -1.11367e-05 1.54449e-05
5 1 8.6565 5.0768 5.3665 -1.26559e-05 3.00571e-06 -2.14723e-05 2.51051e-05
6 1 7.24378 4.01358 3.45691 2.1934e-06 -5.28333e-06 -1.82423e-06 6.00437e-06
7 1 7.5627 4.73283 0.93743 1.07897e-05 -8.24559e-06 -3.27266e-06 1.39685e-05
8 1 9.1223 0.810431 10.9356 -1.63423e-05 1.61962e-05 -1.11743e-06 2.30356e-05
9 1 10.2073 2.45042 9.32924 -1.73271e-05 2.2497e-05 8.54002e-06 2.96526e-05
10 1 8.86961 1.37866 7.39807 2.17404e-05 2.92923e-06 -1.02096e-05 2.41963e-05
11 1 8.68772 2.58552 4.97875 -1.85929e-06 1.32359e-07 -1.95066e-05 1.95955e-05
12 1 9.38641 0.53818 1.81863 3.15303e-05 -3.22608e-05 1.29365e-05 4.69284e-05
13 1 7.89413 2.04269 0.427094 2.06739e-05 -3.39132e-05 -1.35786e-05 4.19749e-05
14 1 8.08256 11.5623 0.00228624 -2.26203e-05 -8.94773e-06 2.19012e-05 3.27323e-05
15 1 6.70828 10.487 10.9795 9.59698e-06 2.80863e-05 1.09072e-05 3.16214e-05
16 1 6.30679 10.889 7.30339 -1.58628e-05 5.52497e-07 -1.50471e-05 2.18712e-05
17 1 7.97039 10.658 2.52328 9.623e-06 2.16174e-05 -4.5745e-06 2.41006e-05
18 1 5.15905 8.51908 11.6077 -1.44084e-05 -3.78129e-06 -9.83351e-06 1.78493e-05
19 1 7.82337 9.34912 8.85006 -1.46376e-05 -8.71954e-06 1.41791e-05 2.21661e-05
20 1 6.41805 8.3387 6.98305 -9.09524e-06 1.80736e-06 1.11907e-05 1.45335e-05
21 1 7.37925 9.8956 5.15232 -1.87748e-05 -5.01716e-06 6.75677e-06 2.05747e-05
22 1 5.95491 8.92478 3.26218 -7.17243e-06 4.0999e-05 1.24433e-05 4.34419e-05
23 1 9.20117 9.34032 0.346847 3.45029e-06 2.45071e-05 2.24195e-05 3.33936e-05
24 1 5.34812 5.94164 11.339 -2.21664e-05 1.82183e-05 5.36044e-05 6.08004e-05
25 1 6.43214 7.20386 9.45675 -1.7931e-05 3.50135e-05 -2.3508e-05 4.58268e-05
26 1 5.00411 6.1418 7.61392 7.97135e-06 -2.58308e-06 6.85704e-06 1.08275e-05
27 1 7.6357 7.34009 4.79341 9.60114e-06 8.36975e-06 3.51215e-05 3.73598e-05
28 1 3.63576 6.29592 3.25756 4.90949e-06 1.07071e-05 2.22373e-05 2.51643e-05
29 1 6.70886 7.05927 0.424759 -3.52633e-06 -1.4841e-05 2.70606e-05 3.10639e-05
30 1 4.54781 7.87157 1.43263 -2.1212e-05 5.93307e-06 -1.04586e-05 2.43831e-05
31 1 6.24831 6.31301 2.93748 -1.02549e-05 -9.35394e-06 1.34464e-05 1.93252e-05
32 1 7.58555 6.15148 7.38593 -2.45552e-05 1.18513e-07 -1.5807e-05 2.92033e-05
33 1 10.4606 5.57613 10.7905 -1.31801e-05 -1.12613e-05 5.29459e-06 1.81263e-05
34 1 10.3875 9.28702 8.66877 1.52279e-05 2.92307e-05 -8.25702e-06 3.3978e-05
35 1 10.1709 6.07709 7.20987 2.13062e-05 2.66163e-05 -3.48765e-06 3.42716e-05
36 1 8.94777 5.80349 2.8586 3.39495e-05 2.04922e-05 2.31503e-05 4.59177e-05
37 1 8.72654 3.34166 11.2268 -4.23933e-05 -4.44394e-05 -4.14584e-05 7.41003e-05
38 1 0.20875 7.12318 9.05637 6.36199e-07 -1.61712e-05 -1.34737e-05 2.10583e-05
39 1 10.2152 3.55471 6.86243 8.11254e-06 -9.13847e-06 -1.30752e-05 1.78966e-05
40 1 10.7536 4.34652 4.29435 5.97012e-06 1.93652e-05 9.78735e-07 2.02882e-05
41 1 9.28852 3.1879 2.3018 2.79312e-06 -7.7917e-06 -7.74333e-06 1.13345e-05
42 1 9.9253 4.43491 0.168059 4.12912e-05 1.04851e-05 2.75101e-05 5.0712e-05
43 1 0.368656 0.817264 10.703 -2.03852e-05 1.05776e-05 3.00347e-05 3.78091e-05
44 1 0.282653 4.5887 8.65749 1.74092e-05 -8.10489e-06 -9.83258e-07 1.92285e-05
45 1 0.771862 1.78328 7.92934 -4.68726e-07 -3.48417e-06 -4.68429e-05 4.69747e-05
46 1 0.909981 5.30277 6.06334 -5.01489e-06 -6.01207e-06 -3.17058e-05 3.26581e-05
47 1 11.2427 5.23523 2.00558 6.5568e-06 1.55119e-05 -2.90248e-05 3.35566e-05
48 1 10.3475 1.93813 12.7385 1.01979e-05 -1.42274e-05 -2.0344e-05 2.68383e-05
49 1 9.24988 10.3922 10.719 -1.4233e-06 -8.369e-06 5.17859e-06 9.94403e-06
50 1 8.91385 10.8402 7.03735 -7.16509e-06 -9.7085e-06 -2.31986e-05 2.6149e-05
51 1 10.6097 10.2878 2.16281 -3.63166e-07 -2.0341e-06 9.18332e-06 9.41291e-06
52 1 7.8251 8.26446 11.3187 1.28995e-05 -3.21305e-05 1.29118e-06 3.46473e-05
53 1 10.392 11.9307 8.86343 -1.85393e-05 -9.46894e-06 1.85964e-05 2.7914e-05
54 1 9.03455 8.30329 6.6978 2.90552e-06 -2.92367e-05 -1.04161e-05 3.11724e-05
55 1 9.5536 9.13868 4.18887 -5.87641e-06 -8.02029e-06 2.59486e-05 2.77883e-05
56 1 8.14215 8.11855 2.30389 2.35048e-05 -1.32308e-05 1.37911e-05 3.02939e-05
57 1 9.28598 6.80351 0.309272 3.07063e-05 -1.39363e-05 -3.30005e-06 3.3882e-05
58 1 7.89929 5.70464 11.2315 3.11127e-06 1.74953e-05 -9.607e-06 2.02005e-05
59 1 9.01804 7.14348 9.26606 -8.5683e-06 1.24658e-05 -3.93502e-07 1.51316e-05
60 1 10.3381 6.86955 4.76698 -1.51946e-05 -4.06186e-07 -1.84551e-05 2.39088e-05
61 1 3.65622 4.17716 11.9688 1.07336e-05 3.16488e-05 -1.02378e-05 3.49524e-05
62 1 6.43328 4.62797 9.32402 -1.78787e-07 -1.13366e-05 1.53105e-05 1.90516e-05
63 1 4.97989 3.57481 7.40168 4.35715e-05 2.5268e-05 -5.07863e-06 5.06235e-05
64 1 4.53471 1.78079 12.504 -2.91616e-05 2.42983e-05 2.85737e-05 4.75107e-05
65 1 4.98323 2.46752 9.9014 -1.13836e-05 -2.22814e-06 2.39417e-05 2.66037e-05
66 1 3.57401 1.39472 8.02982 -2.26032e-06 -1.77667e-05 -1.66111e-05 2.44273e-05
67 1 4.75783 0.322371 5.82884 2.15066e-05 3.41773e-05 1.03798e-05 4.16936e-05
68 1 4.66886 1.49983 3.35084 4.13515e-06 4.462e-06 -1.75379e-05 1.8563e-05
69 1 5.90735 2.91789 1.57249 -5.68986e-05 2.60081e-05 9.14824e-06 6.32263e-05
70 1 1.83951 11.3736 12.2955 1.70429e-06 -2.16194e-05 6.12466e-06 2.25347e-05
71 1 1.65237 11.6974 8.7923 -2.58257e-05 2.15036e-05 -3.98196e-05 5.21054e-05
72 1 3.30857 11.3338 4.04042 -1.62712e-05 -1.26493e-05 3.89863e-06 2.09751e-05
73 1 3.16581 10.1984 10.3191 -1.61727e-05 -1.24604e-05 -2.01416e-05 2.86793e-05
74 1 1.7294 9.11805 8.47002 8.55601e-06 2.13559e-05 -1.60503e-05 2.80516e-05
75 1 2.29486 9.79057 5.88994 -8.01192e-06 6.56911e-06 2.9213e-05 3.09958e-05
76 1 0.759127 8.86926 4.02787 5.81595e-06 3.49151e-05 -3.58599e-05 5.03867e-05
77 1 4.38956 10.4621 1.83255 2.01953e-05 -4.28968e-05 -1.55356e-05 4.98933e-05
78 1 1.61729 8.20152 10.9349 -1.8759e-06 -2.08672e-05 -1.92072e-05 2.84231e-05
79 1 2.47174 7.32594 5.50422 -9.29585e-06 -2.61763e-05 2.00685e-05 3.42688e-05
80 1 10.7417 7.73703 2.18823 -3.0866e-06 -2.63807e-05 -3.02862e-07 2.65624e-05
81 1 1.7602 5.71361 10.522 -5.77762e-06 1.92432e-05 2.60578e-06 2.02601e-05
82 1 3.51244 2.53343 5.52453 2.23102e-05 2.6657e-06 8.96085e-06 2.41898e-05
83 1 0.483623 6.60971 12.7236 1.43075e-05 -2.85776e-05 2.77531e-05 4.23275e-05
84 1 3.08619 0.725515 10.5647 -3.14763e-05 1.45427e-05 -2.73026e-05 4.41325e-05
85 1 2.21405 0.21886 6.29505 -2.20485e-06 -1.4947e-05 1.11978e-05 1.8806e-05
86 1 10.6433 11.4656 12.5934 2.32301e-05 -1.26647e-05 1.61084e-05 3.0976e-05
87 1 6.04624 0.270975 1.23611 -6.07444e-06 4.0021e-05 -8.15583e-06 4.12928e-05
88 1 0.392643 10.3395 10.5127 -2.61334e-05 8.44929e-06 -3.38608e-05 4.35993e-05
89 1 0.193633 10.6635 6.96925 -1.01547e-05 -1.39059e-05 -1.72364e-05 2.43637e-05
90 1 1.83163 10.2484 2.04841 -5.37382e-06 1.03284e-05 3.18696e-05 3.39297e-05
91 1 2.29373 5.31725 1.36233 -8.76893e-06 -2.32153e-05 -1.42376e-06 2.4857e-05
92 1 2.18892 4.18357 3.80667 1.26953e-05 4.28903e-05 -6.3343e-06 4.5176e-05
93 1 3.58779 5.11342 5.73664 -3.97383e-05 1.10131e-05 1.24301e-05 4.30689e-05
94 1 2.42826 3.735 7.56925 -2.3185e-05 9.85098e-06 1.00842e-05 2.71344e-05
95 1 6.14477 5.1185 5.50547 3.01365e-05 -1.42738e-05 4.89638e-06 3.37035e-05
96 1 4.74745 4.08526 3.62263 3.06169e-05 -1.66668e-05 -4.16285e-06 3.51071e-05
97 1 4.9057 5.26146 1.06494 5.38097e-05 -1.50551e-05 -1.02655e-05 5.68113e-05
98 1 6.57984 0.946841 11.3464 1.82689e-05 -1.94317e-05 -2.48408e-06 2.67864e-05
99 1 7.53773 2.3355 9.39522 3.9525e-05 2.04662e-05 1.9623e-05 4.86431e-05
100 1 6.17153 1.33821 7.61856 -2.25999e-05 -3.99287e-05 -3.93427e-05 6.04393e-05
101 1 6.07642 2.52143 5.23891 -3.49379e-05 2.67054e-05 2.36722e-05 4.99421e-05
102 1 7.38288 0.354504 5.53728 2.8618e-05 1.25056e-05 3.66027e-06 3.14449e-05
103 1 7.33019 1.43002 3.10413 1.04783e-05 -1.15169e-05 8.50253e-06 1.77405e-05
104 1 7.75457 11.902 9.10626 -1.89759e-05 1.42328e-05 2.76092e-05 3.63995e-05
105 1 4.62167 11.2743 12.1397 1.24318e-05 2.07126e-05 -1.53463e-05 2.86193e-05
106 1 5.17757 11.951 9.515 2.13263e-05 2.18148e-05 9.91314e-06 3.20775e-05
107 1 3.75224 10.8659 7.70778 -5.6822e-05 -2.0664e-05 -3.71846e-06 6.0577e-05
108 1 10.4242 8.14032 11.1492 -3.32898e-05 -2.89934e-05 -2.8683e-05 5.26454e-05
109 1 5.8766 11.4403 3.70928 2.37021e-05 -1.551e-05 -2.3315e-05 3.6687e-05
110 1 5.28248 9.40706 9.15683 -1.21352e-06 -3.4719e-05 3.08257e-05 4.64447e-05
111 1 3.86977 8.34364 7.33012 -1.14627e-05 3.03008e-05 -2.11329e-05 3.86799e-05
112 1 4.83061 9.85748 5.47883 9.25758e-06 -1.64719e-06 -3.311e-06 9.96889e-06
113 1 3.36075 8.81636 3.60863 -2.71606e-06 2.89929e-05 -9.57673e-06 3.06542e-05
114 1 6.51977 9.63034 0.673057 -2.12092e-05 -1.02948e-05 4.67687e-05 5.23748e-05
115 1 3.20527 6.78147 12.352 3.52486e-05 1.03764e-05 -1.56112e-05 3.9923e-05
116 1 3.74712 7.39634 9.7645 1.18408e-05 3.13027e-05 2.85227e-05 4.39728e-05
117 1 2.32935 6.32484 7.91555 -5.8304e-06 -6.7121e-06 -2.17621e-05 2.35082e-05
118 1 5.01402 7.32994 5.11728 -8.77664e-07 1.66483e-05 -2.67576e-06 1.68848e-05
119 1 1.121 6.4042 3.68978 2.00364e-05 -5.20988e-05 8.09707e-06 5.64031e-05
120 1 1.92753 7.76721 1.73035 -2.59112e-06 -3.67691e-06 1.01542e-05 1.1106e-05
121 1 3.47846 3.16994 1.65234 3.22029e-05 -1.20778e-05 1.99978e-06 3.44514e-05
122 1 3.87853 4.79617 9.45894 1.94254e-05 2.62063e-05 3.13129e-05 4.52175e-05
123 1 3.04265 9.28249 12.7785 4.84964e-06 1.33025e-05 -1.75056e-05 2.25149e-05
124 1 0.420154 9.19817 0.175362 -8.52147e-06 -1.74551e-05 -5.20096e-06 2.01083e-05
