ITEM: TIMESTEP
0
ITEM: NUMBER OF ATOMS
145
ITEM: BOX BOUNDS pp pp pp
0.0000000000000000e+00 1.1400361000000000e+01
0.0000000000000000e+00 1.2098903999999999e+01
0.0000000000000000e+00 1.2816801000000000e+01
ITEM: ATOMS id type x y z fx fy fz v_fmag
1 1 1.52257 0.169645 3.04307 6.05053e-07 -2.42274e-05 -2.33173e-05 3.36308e-05
2 1 7.10097 1.88245 12.7563 -1.49757e-05 -2.11923e-05 2.83432e-05 3.84281e-05
3 1 8.34468 3.30183 1.72004 2.16527e-05 -6.61692e-06 -1.52654e-05 2.73067e-05
4 1 9.57752 4.69033 3.53908 4.0332e-05 2.11128e-05 -4.25397e-05 6.23061e-05
5 1 8.03937 3.70875 5.27746 -2.35859e-05 -5.09601e-05 8.54557e-06 5.68001e-05
6 1 9.26615 5.07474 7.11461 2.18029e-05 1.08892e-05 -3.32415e-06 2.45966e-05
7 1 7.74229 4.08238 8.84344 8.6338e-06 -8.7683e-06 3.79978e-05 3.99407e-05
8 1 8.64981 2.86469 11.012 -2.7958e-05 5.55551e-06 -2.60111e-05 3.85887e-05
9 1 8.96786 5.48917 10.6507 -2.13503e-05 -4.07928e-05 2.32535e-05 5.15811e-05
10 1 8.63741 5.93679 1.37467 4.12355e-07 -1.37737e-06 3.05955e-06 3.38053e-06
11 1 9.85825 7.29846 3.2006 9.32577e-06 -1.11721e-05 -1.26108e-05 1.92566e-05
12 1 8.34032 6.31041 4.94065 2.28762e-05 1.6532e-05 -1.51765e-05 3.20461e-05
13 1 9.5657 7.68946 6.76857 8.33077e-05 3.16317e-06 9.24366e-06 8.38786e-05
14 1 8.03502 6.71732 8.49808 -3.18423e-05 3.683e-06 -9.12445e-06 3.3328e-05
15 1 7.7299 7.15449 12.0229 4.87724e-05 -9.7917e-06 -2.0254e-05 5.37108e-05
16 1 7.41185 4.53 12.3842 2.96457e-05 2.01916e-06 -2.84914e-06 2.98507e-05
17 1 6.4774 8.78839 0.612991 -2.87986e-05 -2.84323e-05 3.23096e-05 5.17848e-05
18 1 7.42877 1.481 9.16871 -2.33735e-05 -2.84735e-06 -3.26801e-05 4.02793e-05
19 1 7.77031 1.09557 5.61836 -1.00573e-05 1.63498e-05 9.20864e-06 2.129e-05
20 1 4.01441 9.03511 0.181512 1.67406e-05 -3.09033e-05 -2.52454e-05 4.32735e-05
21 1 5.21997 10.4135 2.03218 -2.22862e-05 -3.98615e-05 2.29642e-05 5.11172e-05
22 1 3.65123 9.52877 3.87863 1.81716e-05 -1.21721e-05 1.10907e-05 2.45229e-05
23 1 4.65289 11.2254 9.07041 3.55593e-05 7.61071e-07 2.32548e-06 3.56434e-05
24 1 4.33616 8.62225 9.41108 4.78289e-05 -1.25502e-06 -5.2241e-05 7.084e-05
25 1 5.56786 10.0057 11.2477 -8.02969e-06 -2.26796e-05 2.29176e-05 3.32273e-05
26 1 8.99915 2.43536 7.42564 -3.67264e-06 -4.83911e-05 -9.73931e-06 4.94978e-05
27 1 4.32696 11.6245 12.6622 8.26706e-07 -1.86978e-05 1.12583e-05 2.18413e-05
28 1 3.10611 10.2489 10.8109 1.42806e-05 1.97894e-05 -1.51629e-05 2.8731e-05
29 1 6.45927 11.7774 3.88038 -1.64822e-05 -2.26002e-05 3.18507e-05 4.23898e-05
30 1 8.68819 11.9574 7.75956 -1.71547e-07 2.79981e-05 1.5367e-05 3.19385e-05
31 1 9.90232 1.23079 9.6051 -3.33512e-05 -2.20207e-06 -3.23893e-05 4.65427e-05
32 1 8.01739 0.654992 2.11129 -1.15746e-05 -2.2944e-05 -3.80568e-05 4.59208e-05
33 1 9.27136 2.08779 3.88065 2.00123e-05 9.8308e-06 -3.22006e-05 3.91665e-05
34 1 3.45679 9.84945 7.17509 -2.59982e-05 2.36304e-05 6.66132e-06 3.57586e-05
35 1 7.69153 10.1607 2.45854 2.98909e-06 -2.62289e-05 1.18495e-05 2.89361e-05
36 1 6.10772 9.24354 4.24148 -6.56667e-06 7.29758e-06 2.72638e-06 1.01887e-05
37 1 8.36233 9.36418 8.10682 1.00335e-06 4.2296e-07 7.42393e-06 7.50335e-06
38 1 10.2084 3.81874 9.26383 1.4176e-06 2.98011e-08 2.18031e-05 2.18492e-05
39 1 0.0324725 5.24312 11.0773 9.81988e-06 2.18163e-06 6.78823e-06 1.21355e-05
40 1 9.87968 4.28226 12.809 -7.59124e-06 1.00277e-05 -3.74563e-06 1.31229e-05
41 1 11.1081 5.68221 1.80138 3.0057e-05 2.67952e-05 2.35266e-05 4.66359e-05
42 1 10.8031 6.05523 5.37917 -2.19945e-05 9.3071e-06 -1.70926e-05 2.9369e-05
43 1 0.630476 7.43639 7.20557 -3.58163e-05 3.07782e-05 9.33841e-06 4.81385e-05
44 1 0.332233 4.81986 7.54921 -1.31164e-05 -4.88959e-07 5.70922e-05 5.85815e-05
45 1 10.4995 6.46801 8.92638 5.1412e-05 1.74239e-05 -1.29429e-05 5.58059e-05
46 1 8.95095 8.53818 1.04939 3.64129e-05 -3.37956e-05 2.63313e-05 5.62262e-05
47 1 8.6094 8.92358 4.59978 -6.08277e-06 -3.73562e-05 -5.12552e-05 6.37149e-05
48 1 10.8293 9.12849 8.5199 -9.67433e-06 -8.17198e-06 -3.4738e-05 3.69744e-05
49 1 9.27875 8.13672 10.2786 -1.69959e-05 -5.87059e-06 2.43488e-05 3.02686e-05
50 1 9.25765 11.1323 0.712647 -2.9869e-05 2.82105e-05 1.69362e-05 4.4439e-05
51 1 7.39984 10.5766 5.97227 -2.70727e-05 3.43207e-05 6.88388e-06 4.42519e-05
52 1 10.2002 6.91103 12.456 5.8827e-06 1.96443e-05 -7.41512e-07 2.05196e-05
53 1 0.643857 4.45437 3.96975 -1.80719e-06 2.63378e-05 -9.87573e-06 2.81864e-05
54 1 2.17731 5.44694 2.2357 -4.43923e-05 2.04181e-05 1.58883e-05 5.13811e-05
55 1 10.8087 3.0632 2.14622 -1.65731e-05 2.46055e-05 -3.94569e-05 4.93654e-05
56 1 6.80864 8.37839 9.85265 1.97507e-05 -1.55892e-05 2.58081e-06 2.52938e-05
57 1 8.03569 9.75912 11.6852 1.94846e-05 7.4933e-06 -2.6038e-05 3.33733e-05
58 1 6.78895 11.379 0.277171 -1.57942e-05 -1.06363e-06 2.81267e-05 3.22754e-05
59 1 5.88613 9.58508 7.69391 3.47133e-05 1.93508e-05 4.73433e-06 4.00235e-05
60 1 7.12208 10.9858 9.50546 -1.05273e-05 -2.44812e-05 -4.39485e-06 2.70087e-05
61 1 8.34404 0.260059 11.3497 -2.819e-05 -2.70296e-05 4.38844e-05 5.87462e-05
62 1 8.97986 11.5414 4.24586 -1.52117e-06 -4.22207e-06 -1.94888e-05 1.99988e-05
63 1 10.8119 0.0134164 11.7872 -7.71519e-06 -1.81412e-06 6.9295e-06 1.05277e-05
64 1 10.4936 0.434036 2.52424 8.85352e-06 2.6884e-05 -3.00613e-05 4.12894e-05
65 1 0.338718 1.8861 4.30221 -2.8954e-05 -2.51687e-05 -2.62086e-05 4.64616e-05
66 1 10.272 0.775617 5.97662 -2.0469e-05 1.49644e-05 4.2452e-06 2.57087e-05
67 1 10.5033 3.45796 5.71318 -6.37729e-06 -4.69253e-06 3.65519e-05 3.73997e-05
68 1 0.0607164 2.15699 7.82719 -1.59488e-05 1.35573e-05 -6.61798e-06 2.19536e-05
69 1 11.1202 2.61837 11.4451 1.19501e-06 1.02934e-06 -1.39941e-05 1.40827e-05
70 1 9.57109 1.64077 0.365456 -6.5234e-05 -1.81781e-05 2.67134e-05 7.27979e-05
71 1 5.25949 7.40078 11.5898 1.07296e-05 -9.14294e-06 2.58751e-05 2.94659e-05
72 1 9.59079 10.7391 9.94091 -6.08574e-06 -1.33819e-05 1.39577e-05 2.02714e-05
73 1 5.57098 6.95592 8.07191 6.82009e-06 -1.25798e-05 4.53275e-05 4.75326e-05
74 1 5.87636 6.5612 4.50492 3.86539e-05 -2.17474e-08 -2.74822e-05 4.74277e-05
75 1 3.78009 0.245424 6.77282 -3.98383e-05 1.27773e-05 4.80275e-07 4.184e-05
76 1 3.41639 0.747962 10.4766 -1.08819e-06 1.74052e-06 -8.4331e-06 8.67933e-06
77 1 3.09128 1.13172 1.27418 4.83246e-06 1.20136e-05 -2.91458e-05 3.18929e-05
78 1 4.34888 2.58274 3.01255 1.11563e-05 -2.98516e-06 -4.58567e-05 4.72886e-05
79 1 2.82031 1.6607 4.73529 -2.69311e-05 2.69141e-05 3.7873e-06 3.82622e-05
80 1 4.04732 2.96453 6.58233 -1.12247e-05 1.72523e-05 2.87645e-06 2.07824e-05
81 1 3.98444 12.0237 3.48333 -3.50653e-05 -1.41385e-05 -1.87279e-05 4.21925e-05
82 1 2.50977 1.90105 8.24041 1.10778e-05 1.20129e-05 -1.88189e-05 2.49235e-05
83 1 2.18238 2.37456 11.8879 -1.49552e-05 5.64076e-07 2.51411e-05 2.92583e-05
84 1 3.41269 3.79808 0.861324 4.34371e-06 -1.98867e-05 -2.00661e-05 2.85831e-05
85 1 4.64711 5.19928 2.66887 2.3599e-05 -2.16034e-06 -2.51467e-05 3.45534e-05
86 1 3.11127 4.21432 4.40202 -4.06208e-05 -6.32751e-07 2.92537e-05 5.00623e-05
87 1 4.33549 5.56477 6.24834 -3.47753e-05 -1.16862e-05 4.43611e-05 5.75655e-05
88 1 2.80204 4.57219 7.98239 -7.94863e-06 -2.08563e-06 2.21499e-05 2.36252e-05
89 1 3.71892 3.34057 10.1348 3.29113e-05 8.18878e-06 -1.02239e-05 3.54223e-05
90 1 4.03243 5.979 9.7939 3.62705e-05 3.17685e-06 -5.22126e-06 3.67818e-05
91 1 11.1598 11.7046 8.18591 3.95615e-06 -2.23533e-05 -1.4352e-05 2.6857e-05
92 1 10.5029 9.51189 12.1224 1.65408e-05 1.23526e-05 4.3336e-06 2.10942e-05
93 1 1.32812 0.49035 6.33945 8.73331e-06 1.1998e-05 1.20849e-05 1.91381e-05
94 1 0.964937 0.984043 10.0366 1.30973e-05 -4.28564e-06 1.87965e-05 2.33069e-05
95 1 1.87708 2.82589 2.5783 -2.16546e-05 3.44653e-05 1.03097e-05 4.19889e-05
96 1 1.57261 3.21203 6.1464 4.19666e-05 -1.50737e-05 -3.06411e-06 4.46968e-05
97 1 1.2683 3.56434 9.68763 -3.19265e-05 2.99333e-05 -6.73179e-06 4.42789e-05
98 1 0.946904 4.0401 0.42423 -4.71583e-05 3.19496e-05 -6.69778e-06 5.73545e-05
99 1 0.643193 1.39684 0.807073 -4.64991e-05 2.70229e-05 -1.67015e-05 5.63147e-05
100 1 2.46958 8.11806 1.97768 -8.83413e-06 -8.08176e-07 1.4425e-05 1.69344e-05
101 1 1.56665 6.22103 9.3568 1.96466e-05 5.20153e-07 -1.42281e-05 2.42631e-05
102 1 1.26041 6.67852 0.0833071 7.61207e-06 1.52688e-05 2.30439e-05 2.86723e-05
103 1 0.932024 7.0546 3.63578 7.54115e-06 -3.10159e-05 -1.74082e-05 3.63579e-05
104 1 2.15905 8.35843 5.48282 2.58765e-05 -2.68219e-05 8.25896e-06 3.81735e-05
105 1 10.1761 9.91123 2.88545 3.73315e-06 5.37916e-06 -2.44708e-05 2.53316e-05
106 1 11.0796 8.62647 5.03834 5.21742e-06 2.2874e-05 4.70105e-05 5.25398e-05
107 1 1.86808 5.80482 5.81607 4.85162e-05 1.41445e-06 1.54127e-05 5.09252e-05
108 1 2.48966 5.00954 11.5175 3.89984e-06 4.31649e-05 -1.38593e-05 4.55027e-05
109 1 3.71105 6.45478 0.530461 2.01855e-05 -3.21571e-05 -4.71069e-06 3.82587e-05
110 1 4.91864 7.86217 2.39089 1.03859e-05 -1.51635e-05 2.34817e-05 2.98193e-05
111 1 5.30012 1.39267 5.17978 9.65034e-06 -1.03198e-05 -1.81743e-05 2.30202e-05
112 1 6.52145 2.72069 7.01752 -5.6719e-06 -4.1363e-05 -2.88728e-05 5.07612e-05
113 1 4.95125 1.71211 8.71701 2.77419e-05 1.37466e-05 -3.40639e-05 4.60318e-05
114 1 6.17947 3.10812 10.5789 3.28194e-06 -1.67588e-05 -2.03442e-05 2.65616e-05
115 1 4.63721 2.12538 12.331 -4.96115e-05 8.97612e-06 1.40393e-05 5.23352e-05
116 1 5.88017 3.55113 1.29172 -2.45849e-05 -2.09152e-05 2.88554e-06 3.24066e-05
117 1 6.814 2.3297 3.44955 -3.1663e-05 -2.40825e-05 6.8725e-06 4.03701e-05
118 1 7.11355 4.94441 3.10348 6.15721e-06 1.47855e-05 1.66603e-06 1.61027e-05
119 1 6.80217 5.32882 6.67904 -3.31257e-06 -4.86838e-06 1.4006e-05 1.51935e-05
120 1 5.27159 4.33692 8.41674 -3.90195e-05 -6.67522e-06 -3.10131e-05 5.02881e-05
121 1 6.50002 5.73689 10.2259 -2.14581e-05 -7.0476e-06 -8.17743e-06 2.40206e-05
122 1 4.94686 4.77601 11.9576 -1.13594e-05 2.38437e-05 7.74342e-06 2.75231e-05
123 1 6.17132 6.20042 0.954258 2.52214e-05 -1.29065e-05 9.53729e-06 2.98941e-05
124 1 7.38056 7.58382 2.79246 3.26689e-05 -5.94998e-07 1.32221e-05 3.52482e-05
125 1 5.57657 3.96392 4.83894 2.94544e-05 -2.63954e-05 -4.33997e-06 3.97883e-05
126 1 5.55041 0.89067 1.6982 7.64559e-06 -2.25676e-05 3.16098e-05 3.95845e-05
127 1 5.87679 0.507263 10.9125 -4.90197e-05 -7.41158e-06 -1.17851e-06 4.95909e-05
128 1 6.2036 0.107902 7.33268 1.15664e-05 2.05495e-05 -1.31814e-05 2.7015e-05
129 1 3.40674 6.80711 4.07168 -3.21427e-05 2.91256e-05 4.25865e-05 6.0787e-05
130 1 4.64064 8.13303 5.9159 -2.54598e-05 1.82899e-05 1.823e-05 3.62637e-05
131 1 3.10227 7.19322 7.63982 2.54625e-05 -3.14553e-06 1.13253e-06 2.5681e-05
132 1 2.79696 7.64453 11.147 1.35719e-05 2.56934e-05 -2.19685e-05 3.64275e-05
133 1 0.0280827 8.30701 1.5011 8.52336e-06 7.04175e-06 1.23596e-05 1.65829e-05
134 1 2.76749 10.6574 1.60957 2.04292e-06 -3.18867e-06 3.43404e-05 3.45486e-05
135 1 1.19926 9.77366 3.44528 1.77144e-05 2.95203e-05 2.69392e-06 3.45327e-05
136 1 1.88807 8.88738 8.94396 1.02468e-05 1.91449e-05 -1.70759e-05 2.76245e-05
137 1 0.342133 7.89374 10.7039 5.25525e-05 -1.41849e-06 -9.82697e-06 5.34823e-05
138 1 1.56295 9.27115 12.5583 4.74822e-05 1.08711e-05 2.23426e-05 5.35904e-05
139 1 0.326455 10.8926 1.14772 -1.73658e-06 7.04144e-06 -2.90222e-06 7.81156e-06
140 1 0.994926 10.0943 6.7348 7.81196e-06 4.5363e-05 -1.30281e-05 4.78389e-05
141 1 2.21186 11.4606 8.60855 -1.62944e-05 -7.76363e-06 -2.98476e-05 3.48807e-05
142 1 0.652396 10.4935 10.3727 1.64561e-05 -5.64625e-06 -3.298e-06 1.77076e-05
143 1 1.87324 11.8691 12.224 -2.93024e-05 3.15047e-05 -8.22144e-07 4.30331e-05
144 1 7.10834 7.93135 6.33748 -5.82142e-06 -9.56951e-06 -1.27286e-05 1.69553e-05
145 1 9.92046 10.3407 6.33772 2.6521e-05 -7.81918e-06 2.02953e-05 3.42988e-05
