ITEM: TIMESTEP
0
ITEM: NUMBER OF ATOMS
146
ITEM: BOX BOUNDS pp pp pp
0.0000000000000000e+00 1.1400361000000000e+01
0.0000000000000000e+00 1.2098903999999999e+01
0.0000000000000000e+00 1.2816801000000000e+01
ITEM: ATOMS id type x y z fx fy fz v_fmag
1 1 1.00612 4.41355 6.3 -4.7389e-05 -3.59982e-05 2.75918e-05 6.55964e-05
2 1 8.10884 1.90202 10.6565 1.18517e-05 -1.2455e-05 -6.58569e-06 1.84109e-05
3 1 8.96411 3.05384 12.8091 -5.25921e-05 6.02361e-06 3.5744e-05 6.38737e-05
4 1 7.27426 3.7668 1.48288 2.3744e-05 5.5739e-05 -4.16999e-05 7.35493e-05
5 1 9.95401 4.17759 5.79405 1.36134e-05 6.72905e-06 3.87093e-05 4.15815e-05
6 1 10.7683 5.31742 7.91213 -1.37272e-06 5.85635e-06 1.83238e-05 1.92858e-05
7 1 7.76025 4.58472 11.1386 -4.14946e-05 -3.71679e-05 -6.79924e-06 5.61202e-05
8 1 9.42648 3.60769 9.28539 3.95639e-05 1.55258e-05 -2.32073e-05 4.84245e-05
9 1 10.8809 5.94493 0.938424 2.5934e-05 -2.36006e-05 3.22349e-05 4.76303e-05
10 1 7.91987 5.16328 3.3013 -7.37965e-06 1.15888e-05 -2.59808e-06 1.39825e-05
11 1 8.66362 6.31181 5.31009 -6.83245e-06 2.63795e-05 1.50034e-05 3.11072e-05
12 1 9.09845 6.23493 9.64087 -1.18932e-06 -3.93054e-05 9.03644e-06 4.03483e-05
13 1 9.92523 7.34466 11.8066 2.03605e-05 -2.53315e-05 -5.95369e-06 3.30406e-05
14 1 8.34616 8.29198 0.68791 3.13569e-05 2.33856e-05 1.04632e-05 4.04922e-05
15 1 6.58329 7.07235 2.42135 -6.27153e-06 5.67627e-05 1.20671e-05 5.83691e-05
16 1 8.49502 5.76661 0.671646 -2.25082e-05 3.24712e-06 4.4371e-06 2.317e-05
17 1 7.25871 8.32713 4.68334 2.65289e-05 5.009e-07 -7.69118e-06 2.76259e-05
18 1 8.67234 2.38434 7.09191 1.52885e-05 -2.62299e-05 -3.45277e-05 4.59773e-05
19 1 6.01564 1.63222 1.61816 -1.4427e-05 -6.47414e-05 -0.000148359 0.000162511
20 1 4.50482 6.98087 6.61265 -4.27899e-05 -3.15975e-05 -7.13576e-06 5.36684e-05
21 1 5.21538 8.12822 8.73521 -5.95161e-06 -4.46239e-05 4.22781e-05 6.17589e-05
22 1 4.56607 9.15612 2.01274 3.83406e-05 1.71795e-05 -9.0206e-06 4.2971e-05
23 1 5.69328 10.4016 4.1937 -1.89803e-05 -1.28677e-06 -9.64623e-07 1.90483e-05
24 1 3.12068 9.02446 5.96102 -3.32655e-05 2.26064e-05 -1.17138e-05 4.1891e-05
25 1 3.83974 10.2124 8.13646 8.10038e-06 -4.38752e-06 1.17944e-05 1.49658e-05
26 1 9.08577 2.98587 3.73282 -0.000109461 3.37667e-05 6.5297e-05 0.000131854
27 1 3.54056 9.08676 10.4321 -1.41034e-05 3.23216e-06 6.01659e-06 1.56701e-05
28 1 2.48197 11.2796 1.62007 1.04131e-05 2.34556e-05 1.52068e-05 2.98303e-05
29 1 4.07437 11.3827 5.89939 1.83756e-05 -9.86566e-06 3.06485e-07 2.08587e-05
30 1 2.1494 11.1704 9.84298 -3.05385e-06 1.44556e-05 -5.42008e-06 1.57375e-05
31 1 7.93389 1.07748 4.91664 -2.73517e-05 3.6761e-05 -1.37753e-05 4.78461e-05
32 1 9.74047 0.994034 8.93909 2.21912e-05 2.79445e-06 1.44442e-05 2.6625e-05
33 1 7.76557 0.73748 0.133639 -5.83885e-05 3.49911e-06 1.03092e-05 5.93948e-05
34 1 4.23522 10.2913 12.642 -4.01687e-06 2.59701e-06 -3.1559e-05 3.19194e-05
35 1 6.99489 7.20913 7.04615 -5.59342e-05 -1.91853e-05 -1.42802e-06 5.91503e-05
36 1 7.67136 8.35356 9.1721 -5.36003e-05 2.6082e-05 -7.73238e-06 6.01087e-05
37 1 7.17643 9.47022 2.46784 1.26081e-05 -3.41389e-06 -1.46372e-05 1.9618e-05
38 1 9.00802 7.37598 2.89597 3.58509e-05 2.14462e-05 -3.87374e-05 5.69721e-05
39 1 9.68381 8.61412 5.08769 -2.48002e-05 3.33284e-05 -3.54862e-05 5.46361e-05
40 1 9.51495 7.4575 7.42171 -1.3305e-05 -2.74316e-05 -1.90017e-05 3.59247e-05
41 1 10.0932 8.6222 9.5803 -4.22702e-05 1.60673e-06 3.32728e-05 5.38185e-05
42 1 9.69911 9.80603 2.89687 -1.43346e-05 3.5512e-05 -6.30584e-06 3.88116e-05
43 1 10.5862 11.0103 5.01936 1.88594e-05 1.59282e-05 -1.88355e-05 3.10509e-05
44 1 10.8164 8.50855 1.1213 3.91752e-05 -1.40313e-05 -9.21992e-06 4.26214e-05
45 1 7.99069 9.51441 6.87359 -1.85924e-05 -5.92577e-06 1.28489e-05 2.33643e-05
46 1 8.38517 9.52381 11.3307 -4.37333e-05 1.58722e-05 3.62252e-05 5.89643e-05
47 1 9.05366 10.7207 0.714189 2.39195e-05 -1.25623e-05 -5.89643e-05 6.48595e-05
48 1 7.30134 11.9301 2.59388 2.35292e-05 -6.7739e-06 -3.89911e-05 4.60415e-05
49 1 8.97124 11.8957 6.80553 4.51195e-06 -8.82501e-06 -8.83142e-06 1.32753e-05
50 1 7.01646 11.6433 10.7767 1.24191e-05 -1.45492e-05 -3.4923e-05 3.98187e-05
51 1 0.0121848 7.5622 3.2989 1.20241e-05 6.1004e-06 4.92103e-05 5.1024e-05
52 1 8.6926 10.7038 9.0325 1.99168e-05 -3.15952e-05 -1.01805e-05 3.87115e-05
53 1 11.0534 6.46757 5.59166 3.36902e-06 -1.92329e-05 3.35945e-05 3.88567e-05
54 1 10.3405 5.20151 3.29747 -7.33465e-06 -1.05125e-05 4.87203e-05 5.03784e-05
55 1 10.7807 2.31282 2.24901 -5.06812e-06 1.63501e-05 -0.000116539 0.00011779
56 1 8.1476 10.6999 4.63084 2.46592e-05 -1.3604e-05 -1.68714e-06 2.82133e-05
57 1 5.55476 9.26444 6.43341 -4.37336e-05 -3.9425e-06 1.18194e-05 4.54738e-05
58 1 6.27448 10.4569 8.60478 -1.58988e-05 2.64728e-05 -2.54385e-06 3.09847e-05
59 1 5.96945 9.31902 10.8932 -4.24644e-05 2.42904e-05 2.9679e-05 5.72197e-05
60 1 6.64158 10.5421 0.304616 -3.05705e-05 1.44785e-05 -1.29206e-05 3.62094e-05
61 1 4.89261 11.5809 2.10847 2.21824e-05 3.59558e-05 -2.97948e-05 5.16973e-05
62 1 6.52419 11.6232 6.36987 -1.32507e-05 -1.14995e-05 -1.91212e-05 2.59507e-05
63 1 4.58307 11.3981 10.2895 2.48419e-05 -2.32107e-06 -3.88981e-05 4.62122e-05
64 1 10.3398 1.40954 5.27599 3.36978e-05 -9.85903e-06 1.13445e-05 3.68977e-05
65 1 10.1571 0.869994 0.432601 6.17748e-05 3.70419e-05 4.12055e-05 8.29826e-05
66 1 0.209521 3.27764 4.28526 5.45696e-05 1.07889e-05 8.59421e-05 0.000102373
67 1 11.3974 0.0578785 7.19169 -6.66603e-06 -5.40562e-05 -1.24746e-05 5.5876e-05
68 1 10.5215 2.1574 11.0736 2.53593e-06 -2.91408e-05 2.60156e-06 2.93664e-05
69 1 9.6278 0.241333 2.96873 8.52793e-06 7.31747e-05 -2.32523e-05 7.72524e-05
70 1 10.1778 4.85308 11.4277 -3.42561e-05 1.58532e-05 -5.98334e-07 3.77513e-05
71 1 4.83651 8.05053 4.21854 -3.26035e-05 3.0813e-05 9.8867e-06 4.59366e-05
72 1 4.18072 6.73497 1.92477 3.28509e-05 8.24977e-06 2.46079e-05 4.18663e-05
73 1 5.88796 8.12779 0.262174 4.61302e-05 -2.44453e-06 3.43676e-05 5.7577e-05
74 1 7.48951 7.10856 11.42 4.26028e-05 2.56181e-05 -1.94288e-05 5.33738e-05
75 1 0.64064 0.362775 3.37596 4.05818e-07 -1.76968e-06 -2.26356e-05 2.27083e-05
76 1 1.38637 1.57962 5.68283 1.37791e-05 6.9682e-06 1.06848e-05 1.87772e-05
77 1 4.86843 0.48119 8.04799 6.00981e-05 -5.26403e-06 -3.11361e-05 6.78892e-05
78 1 2.86913 0.221471 11.9635 -2.4078e-05 -4.28709e-05 -1.88556e-05 5.26611e-05
79 1 1.13965 1.16397 0.786081 -7.88304e-05 -5.10244e-05 4.34929e-06 9.40034e-05
80 1 4.30991 2.57001 3.19313 -0.000102985 1.36105e-05 -9.94507e-06 0.000104355
81 1 10.8036 9.76688 11.762 -4.93052e-05 2.60277e-05 4.27932e-05 7.02831e-05
82 1 3.83024 1.8171 6.15126 2.23576e-06 -9.65246e-07 1.28431e-05 1.3072e-05
83 1 3.19855 1.42003 9.71835 1.74239e-05 -2.58414e-05 -1.7059e-05 3.553e-05
84 1 3.97736 2.54481 11.7785 -3.80421e-07 -4.55073e-05 4.68499e-06 4.57494e-05
85 1 2.31346 3.53378 0.545356 4.28864e-05 2.11333e-05 -2.27235e-05 5.29359e-05
86 1 5.09445 3.76189 5.17525 1.74753e-05 2.78062e-05 3.34627e-05 4.68863e-05
87 1 5.9049 4.87776 7.19565 -1.05853e-06 6.85158e-06 -4.81883e-06 8.44309e-06
88 1 2.8856 4.10119 10.1547 -1.91044e-06 -3.57681e-05 -1.60315e-05 3.9243e-05
89 1 4.57055 3.1048 8.40533 4.25065e-05 -3.07798e-05 -1.32849e-05 5.41358e-05
90 1 0.762613 9.95545 3.37432 -2.64261e-05 -6.20877e-06 -1.43604e-05 3.07101e-05
91 1 0.140111 6.53285 9.9804 -3.13614e-05 5.3289e-05 -3.84339e-07 6.18337e-05
92 1 2.60483 6.73804 10.4988 -1.29562e-05 1.15775e-05 1.57733e-06 1.74467e-05
93 1 0.960544 7.63729 12.2068 1.98645e-06 -1.21161e-05 2.08395e-05 2.41874e-05
94 1 2.42829 0.250004 7.60709 4.42028e-05 6.12127e-06 -3.39036e-07 4.4626e-05
95 1 0.444708 12.0787 11.5495 2.56722e-05 1.738e-06 4.00228e-05 4.75805e-05
96 1 1.84171 2.44713 2.71769 6.14469e-05 7.34454e-05 5.09209e-05 0.000108457
97 1 11.0953 2.63512 7.47939 3.36062e-05 -4.82168e-05 2.12128e-05 6.24838e-05
98 1 2.13551 2.84517 7.91462 -6.7351e-06 -1.84848e-07 2.14414e-05 2.24751e-05
99 1 0.761303 1.21694 9.31883 3.73987e-05 -3.374e-06 1.57991e-05 4.07389e-05
100 1 1.52676 2.35258 11.3963 2.89227e-05 -7.00498e-05 2.2916e-05 7.91747e-05
101 1 11.341 3.482 0.288562 5.36833e-06 -4.30809e-05 -1.8553e-05 4.72122e-05
102 1 2.66378 3.50696 4.76416 -3.12062e-06 -8.09795e-05 -4.27943e-05 9.16447e-05
103 1 3.45112 4.66043 6.78169 -5.00373e-06 2.71177e-06 1.31701e-05 1.43472e-05
104 1 0.450844 3.85098 9.68324 -2.55345e-05 -2.31519e-05 1.68872e-05 3.83823e-05
105 1 1.20935 5.15934 11.822 4.42761e-06 3.4346e-06 -2.4865e-05 2.54886e-05
106 1 1.30133 5.51745 3.93869 7.1917e-06 1.48307e-05 -1.19327e-05 2.03485e-05
107 1 1.79018 5.54864 8.39074 -1.22518e-05 9.97193e-07 1.52396e-05 1.95792e-05
108 1 3.62217 5.41877 12.4349 -2.12737e-05 3.183e-05 9.24331e-06 3.93848e-05
109 1 10.4085 9.79342 7.27437 -2.55544e-05 1.21734e-05 9.36229e-06 2.98139e-05
110 1 3.06323 4.61195 2.52802 2.69137e-05 -4.06237e-05 -2.95619e-05 5.69959e-05
111 1 4.23607 5.78702 8.85133 -6.31506e-06 -2.84877e-05 1.13732e-05 3.13173e-05
112 1 3.56685 1.40191 1.19775 3.86182e-05 3.35824e-05 2.35466e-05 5.63345e-05
113 1 6.71021 2.74841 3.62078 0.000141841 4.77524e-05 8.41734e-05 0.00017171
114 1 6.25127 2.1029 6.63886 8.21583e-06 -8.23428e-06 -2.54847e-05 2.80138e-05
115 1 7.00048 3.36734 8.89053 3.48196e-05 -1.50898e-05 -2.21385e-06 3.80133e-05
116 1 5.65188 1.64699 10.1582 3.09083e-05 2.10629e-05 4.22384e-05 5.64185e-05
117 1 6.44335 2.78512 12.218 9.93072e-06 -2.19622e-05 7.9633e-06 2.53844e-05
118 1 5.3115 0.461296 12.4038 7.84293e-06 2.66955e-05 1.42394e-05 3.12557e-05
119 1 4.76365 3.67711 0.965849 8.38992e-06 8.78148e-07 -3.56678e-05 3.66518e-05
120 1 8.34923 5.09262 7.55086 -1.2261e-06 -6.72047e-06 1.62905e-05 1.76649e-05
121 1 5.30999 4.37479 10.6734 2.03314e-05 -1.26444e-05 -2.35695e-05 3.35971e-05
122 1 6.06916 5.61731 0.180214 -1.39216e-05 7.50207e-06 -1.54316e-05 2.20959e-05
123 1 5.5043 4.86962 2.92797 -2.27094e-05 4.36096e-05 -6.14414e-06 4.95506e-05
124 1 6.21266 6.06914 4.95291 -2.01544e-05 3.29315e-07 -2.30024e-05 3.05846e-05
125 1 6.67758 5.99013 9.27875 -1.09624e-05 -2.62893e-05 1.03459e-05 3.03041e-05
126 1 7.545 3.97047 5.51854 -2.34139e-05 -5.73226e-05 -6.34742e-05 8.86739e-05
127 1 7.31184 0.735903 8.51129 9.62717e-06 -6.91059e-06 -5.81009e-05 5.92972e-05
128 1 5.50483 0.756387 4.39082 4.1865e-06 -4.7337e-05 5.10917e-05 6.97759e-05
129 1 3.0636 0.554581 3.86792 -3.0216e-05 4.32167e-06 6.62632e-06 3.12345e-05
130 1 5.04839 6.93723 10.9789 -9.32146e-06 -1.61026e-05 1.56177e-05 2.42919e-05
131 1 3.41631 7.9092 12.6556 -8.87034e-06 1.19168e-06 1.77536e-06 9.12442e-06
132 1 1.78639 6.357 1.41599 8.84301e-06 -1.55232e-05 -4.28243e-05 4.64014e-05
133 1 2.41834 7.79021 3.74635 1.02417e-05 -1.26715e-05 1.09928e-05 1.96545e-05
134 1 2.04042 6.72445 6.1225 -3.67162e-05 2.97206e-05 1.40123e-05 4.92721e-05
135 1 2.7155 7.89577 8.25256 -2.30462e-05 -5.65388e-06 -1.54359e-05 2.83083e-05
136 1 1.94965 8.84512 1.55965 5.41465e-05 -1.55719e-05 1.91018e-05 5.94912e-05
137 1 3.22375 10.1795 3.75893 -2.06503e-05 2.43653e-05 -3.88427e-06 3.21744e-05
138 1 0.682358 8.78095 5.57777 -2.5007e-05 8.73531e-06 3.02926e-05 4.02405e-05
139 1 1.40678 9.98822 7.70126 -1.32596e-05 1.12777e-05 7.7244e-06 1.90439e-05
140 1 1.10862 8.85953 9.98344 1.50732e-07 3.69903e-05 1.23145e-05 3.89866e-05
141 1 1.8229 10.0282 12.1782 -1.95779e-05 6.03901e-06 1.95658e-06 2.05813e-05
142 1 0.0771812 10.9601 1.18082 -9.55213e-06 -1.17036e-05 -2.3538e-06 1.52892e-05
143 1 1.62874 11.1696 5.459 2.76667e-05 1.64289e-05 1.61168e-05 3.59876e-05
144 1 11.1169 10.9555 9.43065 -1.62342e-05 2.16882e-05 9.27364e-06 2.86343e-05
145 1 3.75756 5.8203 4.52336 1.18088e-05 5.5852e-06 1.79305e-06 1.31855e-05
146 1 9.42343 11.8536 11.1669 -1.05814e-05 2.41481e-05 -5.64888e-05 6.23384e-05
