ITEM: TIMESTEP
0
ITEM: NUMBER OF ATOMS
132
ITEM: BOX BOUNDS pp pp pp
0.0000000000000000e+00 1.1436527999999999e+01
0.0000000000000000e+00 1.1745825000000000e+01
0.0000000000000000e+00 1.1261291999999999e+01
ITEM: ATOMS id type x y z fx fy fz v_fmag
1 1 11.1011 7.30602 1.50311 2.36629e-05 -1.74626e-05 1.18478e-05 3.17056e-05
2 1 8.23098 7.5912 4.68556 -2.62479e-05 1.13714e-05 1.73792e-05 3.34708e-05
3 1 7.46489 6.70444 10.3795 2.3665e-05 3.73118e-05 -4.04847e-06 4.43688e-05
4 1 7.79555 7.67582 8.20842 5.49787e-05 1.56552e-05 2.30603e-05 6.16403e-05
5 1 6.66339 6.4681 6.16035 -1.05049e-05 5.74723e-07 3.2246e-06 1.10037e-05
6 1 9.52375 6.21219 3.00799 2.5071e-05 4.17716e-05 -2.07459e-05 5.29511e-05
7 1 8.38958 5.20916 0.954951 1.68463e-05 -9.12742e-06 3.20784e-05 3.73649e-05
8 1 7.2545 4.18313 10.2195 2.17905e-05 1.57276e-05 -3.99328e-07 2.68765e-05
9 1 8.79374 5.33356 8.76413 7.13186e-07 -2.16421e-05 -6.90078e-06 2.27268e-05
10 1 7.66766 4.28811 6.7801 2.14869e-05 -6.86173e-06 -6.23373e-05 6.62926e-05
11 1 8.0191 5.12972 4.50186 -4.41985e-05 -5.53159e-05 5.5154e-05 8.97515e-05
12 1 6.8564 4.07771 2.43258 4.71935e-05 1.14178e-05 3.32236e-05 5.88336e-05
13 1 7.04144 1.69358 10.0144 9.51081e-06 -1.24794e-05 5.47881e-06 1.66195e-05
14 1 8.63968 2.76968 8.68519 1.61805e-05 4.23418e-05 6.51431e-06 4.57938e-05
15 1 7.65874 1.82172 6.69821 3.46834e-06 8.98555e-05 -2.20351e-06 8.99495e-05
16 1 8.96149 2.88236 5.1013 -5.18063e-05 1.16808e-05 6.8464e-05 8.66467e-05
17 1 7.85341 1.9395 3.07955 -2.25616e-05 2.03381e-05 -1.15284e-05 3.24895e-05
18 1 8.25937 2.74792 0.757923 4.19689e-05 6.16749e-05 -6.08742e-05 9.62853e-05
19 1 7.63292 11.3157 2.90806 2.34339e-05 9.13083e-05 -4.86091e-05 0.000106062
20 1 6.74148 0.869968 0.994836 -2.61718e-05 7.20848e-06 2.67906e-05 3.814e-05
21 1 4.66654 11.5062 6.00362 1.02606e-05 -1.4823e-05 -1.65784e-06 1.81038e-05
22 1 2.68634 11.7193 2.05835 3.94254e-05 -5.31872e-06 8.49196e-07 3.97916e-05
23 1 1.64223 10.5211 0.0170142 5.83155e-05 -5.65743e-05 -1.84753e-05 8.33228e-05
24 1 5.67081 11.386 10.1244 1.02073e-05 3.28871e-05 -5.62683e-06 3.48914e-05
25 1 5.46332 10.2091 7.88925 -1.66292e-05 -1.3227e-05 1.36877e-05 2.52753e-05
26 1 3.53023 10.4385 4.01361 2.81569e-05 8.45596e-06 -1.59218e-05 3.34338e-05
27 1 2.49322 9.32119 1.96903 2.53742e-05 -1.34777e-05 4.95626e-06 2.91558e-05
28 1 3.88228 9.19795 9.39246 -3.87738e-06 -3.5328e-05 7.74031e-06 3.63733e-05
29 1 6.87864 8.90905 6.31225 8.65852e-05 3.91061e-05 -1.65177e-05 9.64319e-05
30 1 5.76154 7.795 4.28179 -1.03423e-05 -1.83573e-05 -2.83154e-05 3.52947e-05
31 1 9.33901 8.86597 6.7377 -1.67668e-05 3.5896e-05 3.79344e-05 5.48513e-05
32 1 6.13366 7.9222 0.742211 9.99466e-06 6.87815e-05 -1.05675e-05 7.03026e-05
33 1 6.3802 9.00561 9.85006 -4.10648e-05 1.60383e-05 -2.09201e-06 4.41352e-05
34 1 6.01741 10.2117 4.41828 -1.43113e-05 1.20953e-05 4.29088e-05 4.68218e-05
35 1 10.3749 9.86271 8.73468 -6.92247e-06 -2.32454e-05 2.36529e-05 3.38781e-05
36 1 9.82019 8.6283 3.15503 -5.48244e-06 -7.07563e-05 1.02854e-05 7.17098e-05
37 1 7.36737 8.9241 2.77753 4.14456e-06 3.54289e-06 -1.88131e-05 1.95873e-05
38 1 8.8373 8.84502 10.2993 1.26724e-06 5.27775e-05 2.10288e-05 5.68268e-05
39 1 10.6668 7.29088 5.05939 2.39028e-05 -1.71816e-05 -9.02854e-06 3.07906e-05
40 1 8.64767 7.64095 1.13209 -1.40059e-05 -3.56269e-05 6.09873e-05 7.20062e-05
41 1 9.93569 6.39949 10.7439 -3.48933e-05 3.00738e-05 -2.50895e-05 5.24543e-05
42 1 10.2453 7.35742 8.58836 1.30157e-05 -2.28063e-07 2.16153e-05 2.52326e-05
43 1 9.14666 6.25444 6.56646 -3.58938e-05 -7.37512e-06 4.81466e-06 3.69586e-05
44 1 10.838 4.89701 1.29378 -5.13534e-05 1.33e-05 4.22327e-05 6.7806e-05
45 1 9.74297 3.88136 10.5854 -9.69025e-06 5.75958e-06 5.46545e-06 1.25278e-05
46 1 11.2403 5.03519 9.11957 -1.28711e-05 1.97666e-05 -4.01358e-05 4.65539e-05
47 1 10.0776 3.91354 7.12142 6.783e-06 3.93151e-05 -1.91787e-05 4.42664e-05
48 1 10.5425 4.76747 4.89403 -8.92372e-06 -3.82383e-05 3.66927e-05 5.37416e-05
49 1 9.42969 3.75846 2.81867 5.72417e-07 -1.76043e-06 -8.32791e-06 8.53117e-06
50 1 9.22463 0.664482 1.42217 3.3949e-05 -2.08611e-05 4.65887e-05 6.13044e-05
51 1 11.0292 2.50277 8.87991 4.39872e-06 -4.18698e-05 3.83661e-05 5.69595e-05
52 1 9.827 0.347515 5.7674 -7.51828e-06 -6.41519e-05 5.98687e-06 6.48679e-05
53 1 11.3298 2.48305 5.54793 -8.39645e-06 -2.2435e-05 -4.3602e-06 2.43483e-05
54 1 10.2608 1.5768 3.54662 -2.34139e-05 -7.45723e-05 5.46817e-06 7.83527e-05
55 1 0.197776 2.68847 1.90222 -2.39507e-05 -8.5863e-07 -3.74904e-05 4.44961e-05
56 1 9.61409 0.474771 8.3114 6.64766e-05 -1.90762e-05 3.32448e-05 7.67349e-05
57 1 10.0968 11.0236 3.26386 -1.55793e-05 6.10033e-05 -2.9687e-05 6.96091e-05
58 1 10.6141 10.8516 10.9222 2.01047e-05 -6.22915e-06 3.59176e-05 4.16302e-05
59 1 7.3293 11.286 6.36306 3.53054e-05 -0.000136672 -1.30326e-05 0.000141759
60 1 5.16466 11.5138 2.48424 4.34891e-05 2.13806e-05 3.46241e-05 5.95589e-05
61 1 4.16267 10.1528 0.362025 3.02497e-05 -3.00352e-07 -2.8464e-05 4.15371e-05
62 1 8.30887 11.457 10.4918 3.8562e-05 5.46752e-06 2.23666e-05 4.49131e-05
63 1 7.93284 10.2634 8.40358 1.30706e-05 -2.7256e-05 -3.26236e-05 4.4475e-05
64 1 4.92309 9.14888 2.41959 4.6076e-07 -2.65378e-05 -1.16287e-05 2.89775e-05
65 1 4.83749 7.03913 10.09 4.75694e-05 -2.84775e-05 3.12708e-05 6.36528e-05
66 1 5.29382 7.78978 7.81093 2.24722e-05 -4.98058e-05 1.34063e-05 5.62613e-05
67 1 4.16296 6.69486 5.7743 1.101e-05 1.66707e-06 -4.08755e-05 4.23651e-05
68 1 2.98262 5.60813 3.71118 -3.0801e-05 1.22207e-05 -1.35771e-05 3.58104e-05
69 1 1.83212 4.5511 1.69198 1.37759e-05 2.43158e-05 -3.17184e-07 2.79487e-05
70 1 2.0496 2.22445 9.27501 -5.04273e-05 -2.82542e-05 -2.58915e-05 6.33371e-05
71 1 3.61273 3.44857 7.85314 2.45596e-05 5.93457e-06 -3.26852e-06 2.54769e-05
72 1 2.45528 2.41155 5.81068 -3.1713e-05 3.47729e-05 -1.55363e-05 4.95605e-05
73 1 3.99792 3.50024 4.33671 -4.15714e-05 4.6459e-05 3.31432e-05 7.06052e-05
74 1 2.8164 2.4019 2.28228 -1.29713e-05 -3.62478e-05 -2.27646e-05 4.47256e-05
75 1 3.201 3.25658 0.0292775 -4.18233e-05 1.13862e-05 -2.24906e-05 4.8833e-05
76 1 3.37748 1.02726 7.6372 -4.83332e-05 -1.64058e-05 -3.23488e-06 5.1144e-05
77 1 3.77641 1.08727 4.14894 -3.01977e-05 3.52733e-05 -7.22926e-06 4.69932e-05
78 1 1.73661 1.28441 0.176555 2.3407e-05 -1.10387e-07 -8.87805e-05 9.18143e-05
79 1 0.650761 0.144159 9.37355 4.14913e-05 -2.86272e-05 -5.95365e-06 5.07592e-05
80 1 0.343446 10.787 7.07565 7.9467e-06 4.74287e-05 -2.52957e-05 5.4337e-05
81 1 1.91681 9.35689 5.52515 -5.8145e-06 2.78522e-05 -3.41421e-05 4.44437e-05
82 1 0.829705 8.31275 3.52942 -3.57974e-06 -2.682e-05 5.05548e-06 2.7526e-05
83 1 0.345683 8.34613 7.06791 -9.71661e-07 -8.79396e-07 -5.75373e-06 5.90109e-06
84 1 2.0951 6.98757 1.86739 -1.21864e-05 -3.39303e-05 3.26381e-05 4.86315e-05
85 1 0.954441 6.06103 11.1124 -4.03051e-05 -1.27115e-05 1.31897e-05 4.42724e-05
86 1 0.204708 5.87619 6.90447 -2.26218e-06 -2.86719e-05 1.74562e-05 3.36439e-05
87 1 0.512253 5.89464 3.35431 -3.39435e-05 -2.43504e-05 2.34733e-05 4.79177e-05
88 1 1.12522 3.71468 7.46219 -2.21538e-05 1.08459e-07 -2.86589e-05 3.62234e-05
89 1 1.35157 3.75116 4.02835 -4.04398e-05 -7.68613e-06 -3.01795e-05 5.10417e-05
90 1 0.715286 3.51062 10.9285 1.30173e-06 -4.63777e-05 -4.89267e-05 6.74271e-05
91 1 0.871183 1.27739 7.29046 -6.06602e-05 -0.000103816 -1.27344e-05 0.000120911
92 1 1.23835 1.33347 3.77949 1.99832e-05 4.4055e-05 1.52627e-05 5.07259e-05
93 1 10.5387 1.55777 10.9659 5.3552e-05 2.09793e-05 -3.5578e-05 6.76295e-05
94 1 10.9214 9.75579 5.13562 2.11198e-06 -5.22318e-05 -7.40478e-06 5.27963e-05
95 1 9.0359 10.0001 1.24115 -1.80476e-05 6.80306e-05 -2.7334e-05 7.55051e-05
96 1 11.3708 8.4433 10.6366 -1.47244e-05 1.48882e-05 2.9905e-05 3.65072e-05
97 1 2.61132 4.84703 6.03098 -6.16602e-05 -1.77976e-05 1.92367e-05 6.69984e-05
98 1 3.72541 5.92277 8.08962 -8.50234e-06 3.30187e-05 1.9576e-05 3.93159e-05
99 1 2.23916 4.71234 9.4795 -1.25676e-05 8.75224e-07 -1.18262e-05 1.72792e-05
100 1 3.38049 5.75169 0.183757 -2.76247e-06 -1.75198e-05 1.3004e-05 2.19927e-05
101 1 7.05416 6.51164 2.60919 -2.30259e-05 3.82497e-05 -4.44737e-05 6.3017e-05
102 1 5.90611 5.48196 0.561913 3.2023e-06 3.05656e-05 -1.49168e-05 3.41617e-05
103 1 4.75086 4.46864 9.84922 7.47711e-06 1.626e-05 3.08092e-05 3.56301e-05
104 1 6.30175 5.6618 8.43594 2.38275e-05 -4.94812e-07 -1.62775e-05 2.8861e-05
105 1 5.15852 4.58543 6.40227 -2.07185e-05 -5.86231e-07 4.86679e-05 5.28976e-05
106 1 5.47858 5.39852 4.07548 -3.34043e-05 4.46087e-05 3.48948e-05 6.57528e-05
107 1 4.32929 4.33594 2.03508 -2.2667e-05 1.33055e-06 -2.94357e-05 3.71756e-05
108 1 4.54324 1.95638 9.64429 6.90798e-05 -1.48262e-05 -2.79697e-06 7.07082e-05
109 1 6.11981 3.18235 8.22749 -2.60319e-06 3.32714e-05 -3.77404e-05 5.03795e-05
110 1 4.984 2.16053 6.20971 -1.15023e-05 -3.59982e-06 -2.77624e-05 3.02657e-05
111 1 6.5203 3.26513 4.75355 7.59018e-06 -1.76701e-05 -6.36335e-06 2.02568e-05
112 1 5.35749 2.17739 2.67364 -3.26238e-05 6.9663e-05 1.33926e-05 7.80808e-05
113 1 5.68749 3.01575 0.400814 -5.73305e-07 -5.16058e-05 -4.16422e-06 5.17767e-05
114 1 5.94283 0.758262 8.00019 -7.68182e-05 9.04074e-06 2.52742e-05 8.1373e-05
115 1 6.66873 10.2375 0.777876 1.00693e-05 -4.31459e-06 -1.08181e-05 1.5396e-05
116 1 6.33908 0.865858 4.59097 1.23201e-05 6.2956e-05 4.00408e-05 7.56208e-05
117 1 2.09706 0.0146254 5.61326 -1.21292e-05 4.65117e-05 -3.53954e-06 4.81974e-05
118 1 0.206476 0.283733 1.66841 -3.49147e-05 -6.44562e-05 3.75057e-05 8.23427e-05
119 1 3.17335 11.6039 9.75331 4.03998e-05 -7.92145e-05 3.20394e-05 9.45177e-05
120 1 2.93282 10.464 7.49797 1.31851e-05 -1.255e-05 1.00937e-05 2.08142e-05
121 1 1.08575 10.7113 3.60176 4.01827e-05 5.00446e-05 -1.77695e-05 6.65948e-05
122 1 0.0411448 9.62956 1.60374 4.98034e-06 2.23053e-05 -3.09507e-05 3.84744e-05
123 1 1.40547 9.50072 9.05212 1.58084e-06 -3.65639e-05 -1.94878e-05 4.14631e-05
124 1 4.39081 9.10625 5.9111 -4.58582e-05 -1.02268e-05 -6.17135e-06 4.73882e-05
125 1 3.28989 8.02118 3.90489 1.58399e-05 -6.05338e-05 -8.27827e-06 6.31172e-05
126 1 2.4897 8.09566 10.9925 7.71691e-06 8.88918e-06 -8.78431e-06 1.46878e-05
127 1 1.35674 6.97711 8.94346 -3.72719e-05 -1.72232e-05 8.57463e-07 4.10678e-05
128 1 2.8029 8.02904 7.41041 3.35461e-05 1.23604e-05 1.31173e-05 3.80813e-05
129 1 1.67407 6.9385 5.38501 -1.11603e-07 -2.55865e-07 -2.61278e-05 2.61293e-05
130 1 4.53399 6.78307 2.16145 2.33829e-05 5.58906e-05 4.99823e-07 6.05868e-05
131 1 4.2567 0.985843 0.557231 2.25424e-05 -1.2646e-06 -3.83764e-05 4.45254e-05
132 1 8.50872 10.0374 4.76371 -1.41274e-05 -3.76295e-06 7.22288e-05 7.36936e-05
