ITEM: TIMESTEP
0
ITEM: NUMBER OF ATOMS
145
ITEM: BOX BOUNDS pp pp pp
0.0000000000000000e+00 1.1400361000000000e+01
0.0000000000000000e+00 1.2098903999999999e+01
0.0000000000000000e+00 1.2816801000000000e+01
ITEM: ATOMS id type x y z fx fy fz v_fmag
1 1 1.20619 1.68329 9.95351 3.78683e-05 2.70003e-05 -1.52693e-05 4.89508e-05
2 1 8.60425 3.9736 1.62352 -1.37924e-05 -2.89402e-06 1.23129e-05 1.8714e-05
3 1 8.28352 4.38661 5.18046 1.4584e-05 -4.84394e-06 -6.78564e-05 6.95748e-05
4 1 6.7657 3.38996 6.91499 5.18629e-06 3.70313e-05 3.20707e-05 4.9262e-05
5 1 7.9923 4.7497 8.72597 4.78557e-05 1.16787e-05 5.80848e-06 4.96014e-05
6 1 6.44239 3.78335 10.4651 -3.25943e-05 2.07132e-06 3.49376e-06 3.28464e-05
7 1 7.68199 5.16858 12.2809 2.67644e-05 4.05944e-06 -6.46234e-06 2.78312e-05
8 1 9.82343 2.32122 0.261619 8.34408e-05 2.27542e-05 5.22093e-06 8.66452e-05
9 1 8.91735 6.57509 1.26962 2.85837e-06 5.29663e-05 2.68005e-05 5.94295e-05
10 1 8.58836 6.98995 4.84172 2.32125e-06 1.91751e-06 7.67584e-06 8.24522e-06
11 1 7.04969 6.00736 6.58073 2.79192e-05 -1.07716e-05 1.14332e-05 3.20348e-05
12 1 8.28344 7.38258 8.40706 2.64281e-05 -6.88414e-05 -1.9928e-05 7.63852e-05
13 1 6.76198 6.39211 10.1351 -1.34759e-05 -2.12683e-05 -8.23598e-06 2.6491e-05
14 1 5.52284 8.04529 11.5117 -7.33084e-06 4.91274e-06 -6.32566e-06 1.08577e-05
15 1 9.22352 9.17155 0.914949 4.86797e-05 -2.45075e-05 -4.50028e-06 5.46862e-05
16 1 7.36297 5.60474 3.0148 2.58119e-05 -1.53951e-05 1.22122e-05 3.24408e-05
17 1 7.66835 8.21455 2.66566 2.00571e-05 -2.74025e-05 -6.21746e-06 3.45231e-05
18 1 7.70918 2.15377 9.05198 1.78469e-05 -1.38171e-07 1.01627e-06 1.78764e-05
19 1 7.05298 2.98391 3.37368 2.85635e-05 -3.89248e-05 -5.27034e-05 7.14749e-05
20 1 5.20348 8.47153 2.23866 3.16753e-05 -4.1114e-05 -2.64465e-06 5.1968e-05
21 1 6.42142 9.84812 4.07459 1.66446e-05 4.11941e-05 3.18027e-05 5.46389e-05
22 1 4.87683 8.86638 5.81799 7.31978e-06 1.62558e-05 4.70158e-05 5.02824e-05
23 1 6.11362 10.2556 7.61927 -7.00588e-06 -6.92275e-06 -1.01131e-05 1.41168e-05
24 1 4.58531 9.27569 9.35119 5.48816e-05 -1.56411e-05 -2.07248e-05 6.07137e-05
25 1 5.82906 10.6843 11.1402 -3.03635e-05 -3.43705e-06 -2.00902e-05 3.65701e-05
26 1 5.52007 2.00021 5.12277 -5.49094e-05 -1.04558e-05 -2.86203e-05 6.27972e-05
27 1 5.50936 11.0769 1.905 3.96598e-06 -1.97334e-05 -2.34596e-05 3.0911e-05
28 1 4.8839 11.9044 8.98097 -1.07557e-05 1.551e-05 -5.15759e-06 1.95665e-05
29 1 9.51244 11.803 0.602346 2.56445e-06 -1.07306e-05 -6.75921e-05 6.84866e-05
30 1 9.19588 0.112247 4.15564 2.17282e-05 -2.14905e-05 5.27743e-05 6.09843e-05
31 1 9.01255 0.557338 7.63426 -4.05341e-05 9.30236e-06 -1.97645e-05 4.60455e-05
32 1 11.0614 0.687507 11.6954 -4.071e-05 1.50282e-05 -3.23613e-06 4.35158e-05
33 1 5.81315 1.58548 1.56526 3.04675e-06 2.0119e-06 -6.05179e-06 7.06786e-06
34 1 5.17817 11.4908 5.4712 1.53176e-05 3.00855e-05 -2.09261e-06 3.38252e-05
35 1 8.89005 9.5964 4.5008 -2.85094e-05 1.41548e-05 2.93126e-06 3.19646e-05
36 1 7.34983 8.61607 6.23843 1.23706e-05 1.40587e-05 1.13084e-05 2.1876e-05
37 1 8.58082 9.99791 8.04872 -8.01369e-05 -1.36168e-05 2.33187e-05 8.45642e-05
38 1 9.51663 5.75834 7.01062 3.76829e-05 8.70106e-06 1.2386e-05 4.06094e-05
39 1 10.7458 7.14929 8.83558 -6.89631e-06 -2.04634e-05 -9.29108e-06 2.35082e-05
40 1 9.25297 6.14733 10.5636 2.99016e-05 -8.32824e-08 1.42253e-05 3.3113e-05
41 1 7.99774 7.7935 11.9335 8.77299e-06 1.46027e-05 2.90108e-05 3.36427e-05
42 1 0.271761 8.95158 1.37008 -3.24364e-09 1.05239e-05 -1.50576e-05 1.83707e-05
43 1 10.1315 7.97416 3.10719 1.46741e-06 1.49292e-05 3.10208e-05 3.44575e-05
44 1 11.0571 6.75181 5.27115 -2.93776e-05 1.89327e-05 2.14415e-05 4.10028e-05
45 1 11.3623 9.36392 4.94062 -5.51208e-05 1.12205e-05 1.84836e-05 5.92101e-05
46 1 11.0484 9.73811 8.4943 2.42346e-05 -3.87564e-05 -5.55197e-06 4.60456e-05
47 1 9.51439 8.79178 10.2129 1.95544e-05 -2.46505e-06 1.02025e-06 1.97356e-05
48 1 10.7478 10.1803 12.0202 1.11535e-06 5.46345e-05 8.22731e-07 5.4652e-05
49 1 10.4355 10.5821 2.77018 -2.56882e-06 -1.92325e-05 2.66124e-06 1.9585e-05
50 1 10.1144 10.9486 6.32262 2.04205e-05 5.81478e-06 6.65939e-06 2.22521e-05
51 1 9.86641 11.4373 9.79588 1.20097e-05 3.60511e-05 1.13731e-05 3.96644e-05
52 1 9.81821 8.36248 6.66944 2.63628e-05 -4.56539e-05 -1.95593e-05 5.62302e-05
53 1 9.82454 5.3617 3.4498 1.96647e-05 2.41853e-05 4.38141e-06 3.14775e-05
54 1 11.372 6.33556 1.73348 7.47775e-05 -2.44374e-05 -4.48004e-05 9.05315e-05
55 1 10.1747 4.95204 12.6788 4.21316e-05 1.9145e-05 3.39629e-05 5.74028e-05
56 1 7.05099 9.02875 9.78022 -2.77639e-05 2.69647e-05 1.35137e-05 4.09945e-05
57 1 8.29815 10.4492 11.5596 3.57654e-05 1.51052e-05 -7.98847e-06 3.96377e-05
58 1 7.97516 10.8166 2.33126 -6.20506e-05 -2.07538e-06 1.46121e-05 6.37817e-05
59 1 7.65499 11.2288 5.89185 -3.39287e-05 1.70026e-05 -3.41059e-05 5.10241e-05
60 1 7.38727 11.6738 9.38543 2.8559e-05 6.14597e-06 2.9942e-06 2.93659e-05
61 1 0.212786 12.02 4.63481 -8.90162e-05 -7.12513e-06 2.37037e-06 8.93323e-05
62 1 8.27749 1.34111 1.99178 -3.75511e-05 5.43535e-05 2.20861e-05 6.96576e-05
63 1 9.51209 2.7448 3.79755 -4.94147e-05 4.29106e-05 -1.01675e-05 6.62307e-05
64 1 8.0257 1.75226 5.5383 5.75048e-05 -1.71191e-06 -7.23432e-05 9.24299e-05
65 1 10.1896 1.8701 9.47089 -3.24225e-05 3.31256e-05 4.34402e-05 6.35262e-05
66 1 11.0583 3.71279 2.08236 -2.24972e-05 5.25205e-07 -5.84856e-06 2.3251e-05
67 1 10.7555 4.16111 5.60867 -6.02025e-07 2.89522e-05 1.10082e-05 3.09802e-05
68 1 9.26307 3.11104 7.29426 -3.18108e-05 4.00575e-05 3.37104e-06 5.1263e-05
69 1 10.4361 4.52883 9.1775 -1.07168e-05 1.21975e-05 3.34661e-05 3.71969e-05
70 1 8.91012 3.50895 10.8876 1.96222e-05 4.11325e-06 -1.15794e-05 2.31524e-05
71 1 6.75757 9.4487 0.491742 -3.99699e-05 -4.47261e-05 9.2202e-07 5.99906e-05
72 1 10.7405 1.09699 2.41865 3.99628e-06 -1.14749e-05 1.09283e-05 1.63423e-05
73 1 3.05727 8.30461 11.0891 -1.42008e-05 2.84241e-05 -2.7356e-05 4.19278e-05
74 1 5.81375 7.63234 7.97733 -1.18383e-05 -2.1234e-05 3.19354e-05 4.0136e-05
75 1 4.59066 0.2072 12.5467 -2.41363e-05 -3.31786e-06 -2.30772e-05 3.35578e-05
76 1 4.26285 0.608585 3.31235 -4.62631e-05 1.77849e-05 5.29914e-05 7.2558e-05
77 1 3.93119 1.03769 6.85142 -9.40804e-06 -1.53996e-05 -1.99178e-05 2.68771e-05
78 1 6.14233 1.18471 10.7993 -1.13318e-05 -3.71657e-05 -4.16384e-05 5.69513e-05
79 1 0.890345 2.07473 0.699547 -5.3909e-05 2.23297e-05 2.17943e-05 6.2288e-05
80 1 2.10762 3.44698 2.54704 1.22345e-05 -5.13209e-05 3.12591e-05 6.13241e-05
81 1 0.579756 11.564 1.03722 -2.52555e-05 7.2397e-07 7.78093e-06 2.64369e-05
82 1 0.536408 2.45909 4.30722 1.96559e-06 -5.46436e-05 -1.15173e-05 5.58787e-05
83 1 4.8979 2.80967 12.2083 -1.49217e-05 -2.28917e-05 9.34909e-06 2.88807e-05
84 1 3.65909 4.43924 0.794551 5.60873e-06 -3.0341e-05 -1.41433e-05 3.39421e-05
85 1 3.35745 4.86944 4.3266 4.23276e-05 -3.2624e-05 -1.34611e-05 5.51103e-05
86 1 1.82198 3.90053 6.0575 -1.45475e-05 -7.28804e-06 -1.82012e-06 1.63725e-05
87 1 3.03266 5.27664 7.8995 1.1431e-05 -1.63318e-05 -2.47242e-05 3.17597e-05
88 1 1.45901 4.35169 9.67501 3.55293e-05 3.85012e-06 -1.23572e-05 3.78134e-05
89 1 2.72965 2.6999 8.24251 -6.26157e-05 1.67363e-05 2.96868e-06 6.48818e-05
90 1 2.69766 5.67908 11.4441 -3.24747e-06 1.32551e-06 -1.78862e-05 1.82269e-05
91 1 0.891489 11.1582 10.3003 2.79848e-05 -2.08775e-06 2.09001e-05 3.49903e-05
92 1 1.48654 10.3682 3.22137 1.17823e-05 -4.11798e-05 -4.02355e-05 5.87665e-05
93 1 2.12562 0.449875 12.1187 4.05923e-05 -3.0499e-05 -6.82924e-05 8.50987e-05
94 1 1.79366 0.855282 2.88121 3.07508e-05 -3.31784e-05 -4.08929e-05 6.09807e-05
95 1 1.38197 1.25156 6.47485 -4.9052e-05 -1.76319e-05 1.11963e-06 5.21367e-05
96 1 3.66768 1.4312 10.378 2.33301e-05 -9.98416e-06 -3.15396e-05 4.04812e-05
97 1 0.291215 2.9631 7.79755 1.15429e-05 1.15534e-05 -1.43745e-06 1.63947e-05
98 1 2.43393 3.04945 11.7825 -3.36498e-06 2.40867e-05 1.75845e-05 3.00118e-05
99 1 1.14122 10.7916 6.8186 -4.55142e-05 -1.54879e-05 6.00073e-06 4.84502e-05
100 1 1.20317 4.68072 0.363046 -1.74142e-06 2.31933e-05 3.39097e-05 4.11197e-05
101 1 0.581244 5.53286 7.43773 -1.35939e-05 1.73127e-05 2.06837e-06 2.21089e-05
102 1 11.3626 3.27427 11.3466 -4.84067e-06 -6.51325e-06 4.13589e-05 4.21475e-05
103 1 1.51241 7.31607 12.8157 3.4822e-05 2.97836e-05 5.40683e-05 7.08733e-05
104 1 1.19957 7.74159 3.54487 5.02314e-05 -7.77739e-06 3.67723e-05 6.27366e-05
105 1 0.886119 8.13137 7.10787 -2.61471e-05 5.94438e-07 1.78376e-05 3.16576e-05
106 1 1.8182 9.94144 12.4624 -6.90158e-06 2.73228e-05 -3.35325e-05 4.38018e-05
107 1 0.89241 5.11381 3.88924 3.90876e-05 7.78674e-06 -3.77699e-05 5.49094e-05
108 1 3.97328 7.07182 0.429392 2.71462e-06 -2.81042e-05 -4.17971e-05 5.04402e-05
109 1 2.43417 6.09383 2.16521 3.28939e-06 2.27651e-05 4.63771e-05 5.17679e-05
110 1 3.65911 7.49964 3.98312 -1.59777e-05 -1.09427e-05 -1.0281e-05 2.19255e-05
111 1 4.5785 3.21466 2.96397 1.39607e-06 -1.82267e-05 8.53841e-06 2.01759e-05
112 1 3.01653 2.22574 4.7191 1.28365e-05 -2.77359e-05 -2.41905e-05 3.89774e-05
113 1 5.21228 2.41583 8.64738 1.3028e-05 2.03206e-05 2.44168e-05 3.43342e-05
114 1 7.36182 2.56034 12.6383 -3.74217e-05 -2.59335e-05 1.46539e-05 4.78296e-05
115 1 6.1276 4.2004 1.21268 -2.39456e-06 -3.12526e-07 4.47462e-05 4.48114e-05
116 1 5.82145 4.62411 4.75702 -3.64136e-05 8.75532e-06 -8.16867e-06 3.83319e-05
117 1 3.35039 1.83133 1.13708 5.20971e-07 -3.09766e-05 3.99548e-05 5.05589e-05
118 1 4.28411 3.64695 6.4969 -9.19318e-06 1.87854e-05 -1.3149e-06 2.09556e-05
119 1 3.9583 4.04852 10.0519 8.92094e-07 9.31321e-06 -3.2013e-05 3.33521e-05
120 1 5.1932 5.42136 11.8628 -5.68875e-06 1.7042e-05 -4.93647e-06 1.86322e-05
121 1 6.44415 6.82064 0.84897 -1.14754e-05 7.18543e-06 1.40214e-06 1.36118e-05
122 1 4.89736 5.85089 2.5932 6.78498e-05 -1.85275e-05 1.27844e-05 7.14863e-05
123 1 6.12284 7.23928 4.41182 3.31135e-05 4.88458e-06 2.96562e-05 4.47197e-05
124 1 4.58183 6.25365 6.15243 2.74834e-05 -6.46743e-06 3.40898e-05 4.42637e-05
125 1 5.51302 5.02133 8.31569 2.72069e-06 -8.46037e-07 1.0436e-05 1.08179e-05
126 1 8.61116 0.934429 11.2315 5.04504e-06 1.54588e-05 -4.52975e-05 4.81279e-05
127 1 6.45834 0.782842 7.2618 2.69596e-05 -3.12481e-05 -6.61099e-06 4.17968e-05
128 1 6.73696 0.360238 3.73149 -2.2444e-05 1.63e-05 -1.91233e-06 2.78043e-05
129 1 2.12238 6.51025 5.70803 -4.78374e-07 2.3279e-05 2.1787e-05 3.18875e-05
130 1 3.33816 7.86681 7.56122 4.62852e-05 -2.21583e-05 -1.29479e-05 5.29241e-05
131 1 1.77723 6.88269 9.32418 7.3563e-07 -8.79795e-06 1.2202e-05 1.5061e-05
132 1 0.587188 8.55821 10.6521 1.6799e-05 3.13966e-05 1.47636e-05 3.85476e-05
133 1 4.28839 9.69824 0.0728391 5.5342e-06 2.05134e-05 -2.43127e-05 3.22883e-05
134 1 2.73518 8.72402 1.81245 4.04255e-06 3.45476e-05 8.98976e-06 3.59262e-05
135 1 3.95266 10.1078 3.65038 -3.29589e-05 -1.66386e-05 5.85641e-06 3.73822e-05
136 1 2.40971 9.14193 5.39658 -1.24443e-05 -4.21174e-05 -4.21055e-06 4.41188e-05
137 1 3.63345 10.5098 7.20027 4.87541e-05 -1.83086e-05 -3.70545e-05 6.39156e-05
138 1 2.12057 9.51058 8.92772 -3.75273e-05 -8.86063e-06 1.99904e-05 4.3433e-05
139 1 3.35621 10.9219 10.7222 -5.48018e-05 5.80887e-05 -3.57231e-05 8.74853e-05
140 1 3.04388 11.3285 1.47543 -1.25483e-05 2.95121e-05 6.588e-06 3.27388e-05
141 1 2.68854 11.7449 5.05991 -1.00266e-05 -2.80615e-05 2.69853e-06 2.9921e-05
142 1 2.37718 0.0557693 8.56562 -3.40838e-05 3.76004e-05 -2.09707e-05 5.49115e-05
143 1 7.05379 12.0581 0.160544 -4.54392e-05 -8.27388e-06 -9.02414e-07 4.61951e-05
144 1 4.27274 6.65067 9.71559 1.373e-06 -3.49687e-05 1.12945e-05 3.67731e-05
145 1 10.4912 7.49729 12.3236 -3.38603e-05 -1.00051e-05 1.33009e-05 3.77298e-05
