ITEM: TIMESTEP
0
ITEM: NUMBER OF ATOMS
122
ITEM: BOX BOUNDS pp pp pp
0.0000000000000000e+00 1.1436527999999999e+01
0.0000000000000000e+00 1.1745825000000000e+01
0.0000000000000000e+00 1.1261291999999999e+01
ITEM: ATOMS id type x y z fx fy fz v_fmag
1 1 0.181357 2.05937 5.52647 -2.24779e-05 -3.25769e-05 -3.67751e-05 5.4027e-05
2 1 7.24609 8.94145 3.6544 1.03028e-05 1.40135e-05 6.00166e-05 6.24861e-05
3 1 8.99211 9.07968 1.43648 -2.57988e-05 3.24274e-05 6.72842e-06 4.19808e-05
4 1 7.20131 8.01318 10.0914 3.74465e-05 4.85051e-06 1.34629e-05 4.00876e-05
5 1 6.42751 5.70609 9.14875 3.38393e-05 1.58072e-05 9.06301e-06 3.84331e-05
6 1 7.17797 7.5596 7.60703 -1.01173e-05 1.6206e-05 -2.16589e-05 2.88808e-05
7 1 7.59262 5.636 4.64246 -1.0971e-05 7.65425e-06 -2.98898e-05 3.27467e-05
8 1 8.70063 7.12902 3.00716 -1.66992e-05 -5.32358e-06 9.34824e-06 1.98644e-05
9 1 6.14714 6.25342 0.354999 2.86601e-05 -2.30548e-05 1.34218e-06 3.68066e-05
10 1 7.83043 4.41197 10.885 -1.44345e-05 6.3023e-06 -3.00068e-05 3.38892e-05
11 1 8.1504 3.84266 8.4157 4.01101e-05 -1.64413e-05 1.09083e-05 4.47004e-05
12 1 8.6968 5.76633 6.88182 -4.52853e-06 1.96959e-05 2.14282e-05 2.94551e-05
13 1 6.61584 3.33088 3.74027 -1.35971e-05 3.36832e-05 -2.86157e-05 4.62417e-05
14 1 5.99115 7.60014 5.36432 -8.65015e-06 -1.47069e-05 1.92714e-05 2.57392e-05
15 1 7.74637 4.91568 2.0805 -8.58979e-06 2.22902e-05 1.02714e-05 2.60027e-05
16 1 7.43889 1.45353 7.51114 2.32247e-05 -6.26586e-06 -1.15378e-05 2.6679e-05
17 1 7.66175 3.45888 6.01064 -2.12708e-05 -1.48457e-05 1.43543e-05 2.96461e-05
18 1 5.70339 1.04725 2.84672 1.26401e-05 2.43643e-05 2.40691e-05 3.65063e-05
19 1 6.83847 2.65098 1.20866 -3.5756e-05 2.28807e-05 -1.27409e-05 4.4321e-05
20 1 8.74992 0.321503 9.31335 -2.20162e-05 -1.75842e-05 -1.9902e-05 3.44964e-05
21 1 6.65824 1.10052 5.20412 1.73627e-05 5.18657e-06 -1.89631e-05 2.62291e-05
22 1 8.45757 0.83926 0.530056 -6.33308e-06 -2.58705e-05 -1.03192e-06 2.66544e-05
23 1 3.83143 11.0776 8.88258 -8.07095e-06 -2.67035e-05 -7.85739e-06 2.8982e-05
24 1 3.22406 10.2269 4.09258 3.12837e-05 -6.69977e-05 -1.74286e-05 7.59679e-05
25 1 4.89156 10.4565 1.90174 -3.70787e-05 -2.96021e-05 1.0659e-05 4.86284e-05
26 1 5.21565 9.83708 10.7082 -5.59282e-06 -2.12925e-05 1.32472e-05 2.56932e-05
27 1 3.11286 8.85257 8.01998 -4.21177e-05 4.0055e-05 2.19213e-05 6.21197e-05
28 1 9.51285 2.5711 10.1591 -1.40546e-05 -2.18953e-05 -3.70578e-05 4.52793e-05
29 1 6.99085 9.9486 6.30789 -4.12056e-08 1.10826e-05 -7.50762e-05 7.58897e-05
30 1 5.59899 9.29109 8.29512 9.88272e-06 3.24506e-05 -2.138e-05 4.00975e-05
31 1 7.67405 10.3156 10.9434 1.50229e-05 9.02833e-06 -2.56301e-05 3.10499e-05
32 1 8.27281 11.1093 4.49817 -2.67807e-05 2.15594e-05 -1.14911e-05 3.62499e-05
33 1 9.81279 11.3437 2.31643 -9.95095e-06 3.40312e-05 2.9641e-06 3.55799e-05
34 1 10.1037 10.8208 10.984 2.86935e-05 4.58367e-06 4.5958e-05 5.43734e-05
35 1 8.15012 9.78284 8.5502 -1.93785e-05 5.20371e-06 5.64662e-06 2.08444e-05
36 1 10.6934 9.44139 6.14306 1.32959e-05 -3.53528e-05 1.97944e-05 4.26429e-05
37 1 8.5933 7.97956 5.55505 -7.7791e-06 1.28732e-05 1.99436e-05 2.49796e-05
38 1 9.78012 9.30373 3.81286 6.1108e-06 -1.42171e-05 2.52542e-05 2.96182e-05
39 1 11.4293 9.54773 1.3861 -2.90184e-05 2.29263e-05 3.5322e-06 3.71505e-05
40 1 9.74101 8.4998 10.3151 2.1531e-05 3.52199e-05 -2.02033e-06 4.13292e-05
41 1 8.86309 6.17022 9.34242 1.67767e-05 -3.00877e-05 6.0046e-07 3.44541e-05
42 1 9.63534 8.00333 7.86214 -1.91975e-06 5.18506e-07 -4.91957e-06 5.30626e-06
43 1 10.2037 6.13238 4.74551 1.70717e-05 -2.56394e-06 -4.53323e-06 1.78485e-05
44 1 8.6772 6.73171 0.539909 4.96105e-05 1.14394e-05 1.54497e-05 5.32048e-05
45 1 10.275 4.83587 11.0514 1.64122e-05 -1.41921e-05 2.07708e-05 3.00367e-05
46 1 10.5821 4.32963 8.58256 -1.86366e-05 -1.74693e-06 -3.1861e-06 1.89875e-05
47 1 9.13807 3.78114 3.86382 -1.12073e-05 -4.56716e-06 -4.56692e-05 4.72455e-05
48 1 10.2315 5.36364 2.20943 1.75005e-05 -1.05119e-05 -2.83904e-05 3.49684e-05
49 1 9.86092 2.01043 7.66698 2.76301e-05 -2.46754e-05 -2.88516e-05 4.69543e-05
50 1 10.1423 3.95585 6.13317 9.76342e-06 -1.97327e-05 -1.76443e-05 2.82139e-05
51 1 8.17517 1.45655 3.02266 -4.53816e-05 1.5632e-06 2.0699e-05 4.99037e-05
52 1 9.29358 3.09093 1.3819 3.45834e-05 9.85321e-06 -6.76097e-06 3.65897e-05
53 1 11.1757 0.722769 9.35552 1.95379e-05 -1.93746e-05 -4.08564e-05 4.92579e-05
54 1 9.13637 1.64657 5.30911 1.81526e-05 4.95977e-05 -8.34709e-06 5.34708e-05
55 1 10.9054 1.27477 0.628532 -2.5815e-05 -3.95933e-05 -1.03661e-05 4.8389e-05
56 1 6.33306 11.5247 9.08114 -1.42021e-05 4.60035e-05 -8.19807e-06 4.88388e-05
57 1 5.69771 10.6969 4.27812 -1.02566e-05 -1.44169e-05 3.98981e-06 1.81374e-05
58 1 7.33152 10.9293 2.1453 -6.12395e-06 -2.60629e-05 -6.17416e-06 2.74754e-05
59 1 4.33911 10.3537 6.38452 2.03253e-06 6.51764e-05 1.35218e-05 6.65953e-05
60 1 3.41229 8.0171 5.45442 2.72918e-05 4.269e-06 -8.9381e-06 2.90337e-05
61 1 4.73652 8.46872 3.36604 -6.9891e-05 4.96345e-05 5.0352e-05 9.94166e-05
62 1 6.55013 8.58266 1.24357 -1.18126e-05 -7.76324e-06 3.37486e-05 3.65893e-05
63 1 3.7587 6.21258 2.5596 -4.48784e-05 5.45593e-05 1.9939e-05 7.34054e-05
64 1 1.2819 5.23302 11.2049 -5.28981e-06 -4.65719e-06 -1.04536e-05 1.26075e-05
65 1 2.96262 3.43372 10.4663 -1.25452e-05 1.10376e-05 5.66102e-07 1.67192e-05
66 1 3.31977 2.83606 7.99069 1.33405e-05 3.22978e-06 -6.1141e-06 1.50261e-05
67 1 3.68663 4.82659 6.54762 6.95457e-06 1.94378e-06 4.05951e-05 4.12323e-05
68 1 1.68995 2.34924 3.29042 2.5333e-05 -1.57014e-05 5.17012e-06 3.02494e-05
69 1 2.78732 3.97966 1.69213 -2.61196e-05 -4.73784e-05 -3.13004e-07 5.41022e-05
70 1 4.64831 1.60428 9.77671 1.0954e-05 -2.07194e-05 6.53805e-06 2.43316e-05
71 1 2.49669 0.535189 7.05545 -2.28716e-05 -5.19422e-06 6.04182e-06 2.42197e-05
72 1 2.6375 2.66808 5.58231 -4.73061e-06 5.06966e-05 -1.74625e-05 5.38281e-05
73 1 0.817633 0.0603048 2.38319 -6.93729e-06 -3.95304e-05 2.2508e-05 4.60151e-05
74 1 1.92566 1.71803 0.783419 2.4293e-05 1.4257e-06 1.49236e-06 2.43805e-05
75 1 1.70945 0.296436 4.72224 -5.81318e-05 1.94382e-05 9.09731e-06 6.1967e-05
76 1 3.55621 11.6449 0.0980872 1.84611e-05 1.48775e-05 -4.72594e-06 2.41762e-05
77 1 1.11538 11.2063 11.1262 1.04749e-05 -1.44849e-05 -2.26032e-05 2.88174e-05
78 1 10.7237 11.5552 4.75011 -3.61296e-06 -2.41604e-05 1.58228e-05 2.91057e-05
79 1 11.1852 7.58475 2.81705 -1.83956e-05 3.59503e-05 1.21315e-07 4.03837e-05
80 1 1.5002 7.64177 0.700403 -1.566e-05 -2.52471e-05 1.28384e-05 3.23648e-05
81 1 11.303 6.64165 9.6534 3.85021e-06 9.60422e-08 3.29418e-05 3.31662e-05
82 1 11.1434 6.2545 7.10568 -3.47192e-05 7.44988e-05 -1.21041e-05 8.30783e-05
83 1 0.230979 4.19985 4.03832 -2.37998e-05 1.74854e-05 1.52131e-05 3.32206e-05
84 1 1.27547 5.75417 2.38557 2.51798e-06 7.60995e-06 1.12091e-05 1.37803e-05
85 1 0.514326 2.98132 10.2919 5.01851e-06 3.07057e-05 -2.00921e-05 3.70367e-05
86 1 0.87795 2.44119 7.84419 1.33092e-05 2.6234e-05 -4.53685e-05 5.40709e-05
87 1 1.13618 4.4308 6.33959 -2.7454e-05 5.26052e-05 1.25193e-05 6.06445e-05
88 1 0.307471 3.50742 1.52373 2.21161e-05 -7.99913e-06 -1.17359e-05 2.62838e-05
89 1 2.20165 1.15425 9.56989 -1.95287e-05 -1.27141e-05 -2.42795e-05 3.36528e-05
90 1 2.40026 5.69165 4.60011 2.7386e-05 -1.38215e-05 -8.64124e-06 3.187e-05
91 1 9.1891 11.3593 6.87382 -5.70799e-06 -2.52036e-05 3.28299e-05 4.17804e-05
92 1 2.17233 6.65358 7.14007 -1.76824e-06 1.88993e-05 3.73543e-05 4.19005e-05
93 1 2.31402 7.02487 9.62066 1.42497e-05 9.01747e-06 2.28784e-06 1.70177e-05
94 1 4.72034 7.53616 9.87183 4.28254e-05 1.81854e-06 7.86079e-06 4.35788e-05
95 1 4.0117 5.18979 8.95272 1.24925e-05 -3.05252e-05 1.33661e-05 3.55879e-05
96 1 4.67743 7.05668 7.42393 6.84395e-06 -2.94248e-05 -4.91694e-06 3.06077e-05
97 1 5.00121 5.25762 4.48043 2.09267e-05 6.08775e-06 -1.8524e-05 2.86029e-05
98 1 6.23615 6.67649 2.8285 8.96267e-05 -4.89213e-05 -4.48075e-05 0.000111508
99 1 3.68682 5.75792 0.127275 1.81489e-05 4.75659e-06 1.39478e-05 2.33784e-05
100 1 5.39639 3.92453 10.6887 8.2659e-06 3.16215e-05 -1.03023e-05 3.42692e-05
101 1 5.73632 3.33927 8.21643 -4.81129e-05 -7.24707e-06 2.08263e-05 5.29255e-05
102 1 6.20215 5.29572 6.70504 -3.39406e-05 1.47964e-05 -9.07215e-06 3.81209e-05
103 1 4.1066 2.95615 3.54459 6.97828e-08 -8.92286e-06 2.56708e-05 2.71774e-05
104 1 5.2797 4.44613 1.89311 5.06964e-05 -3.90779e-05 -1.98611e-05 6.70199e-05
105 1 7.0756 2.09886 9.99155 3.23783e-05 -7.33234e-06 1.19828e-06 3.32198e-05
106 1 5.00102 0.946892 7.29203 1.88039e-05 -9.07186e-06 1.35784e-05 2.4905e-05
107 1 5.17183 3.00483 5.8239 -1.48102e-05 2.04439e-06 -8.52947e-06 1.72126e-05
108 1 3.27476 0.531697 2.59831 7.58529e-06 -1.51765e-05 -9.07719e-06 1.92421e-05
109 1 4.37739 2.18774 1.00542 2.95078e-05 -1.60315e-05 5.00748e-06 3.39529e-05
110 1 4.14294 0.781963 4.95111 -3.80651e-05 1.90635e-05 -1.15382e-05 4.41078e-05
111 1 6.00856 0.381621 0.315674 -3.87483e-05 -1.45857e-05 -6.35021e-06 4.18867e-05
112 1 1.30959 10.6842 8.62078 1.91631e-05 3.97892e-05 -8.65214e-06 4.50029e-05
113 1 0.755086 9.78151 3.84453 -2.09549e-05 -2.79636e-07 2.01086e-05 2.90438e-05
114 1 2.43949 9.96656 1.6894 -1.07135e-05 -3.66575e-05 -8.19467e-06 3.90603e-05
115 1 2.68318 9.36345 10.4413 1.15921e-05 2.26201e-05 1.79271e-06 2.54806e-05
116 1 0.643447 8.40977 8.06836 -2.26274e-05 -7.08182e-06 1.7558e-05 2.95032e-05
117 1 1.75733 9.90784 6.18824 2.75505e-06 -2.11736e-05 7.40073e-06 2.25983e-05
118 1 0.781767 7.62555 5.24848 8.57171e-06 -6.48833e-05 -2.26082e-05 6.9242e-05
119 1 2.24172 7.9762 3.17263 4.17651e-05 -3.46079e-05 8.16035e-06 5.48509e-05
120 1 4.0426 8.11999 0.975627 2.77155e-05 -3.52718e-05 2.26072e-05 5.02328e-05
121 1 1.57978 4.76029 8.73819 -2.24323e-05 -5.45607e-06 1.91559e-05 2.99987e-05
122 1 10.6615 1.87159 3.18508 -1.4857e-05 1.12201e-05 -1.34152e-05 2.29475e-05
