ITEM: TIMESTEP
0
ITEM: NUMBER OF ATOMS
159
ITEM: BOX BOUNDS pp pp pp
0.0000000000000000e+00 1.1400361000000000e+01
0.0000000000000000e+00 1.2098903999999999e+01
0.0000000000000000e+00 1.2816801000000000e+01
ITEM: ATOMS id type x y z fx fy fz v_fmag
1 1 1.0832 0.453381 2.4715 -2.60673e-06 1.87642e-06 -1.23427e-05 1.27538e-05
2 1 5.00354 2.41341 9.55519 1.50619e-05 -1.86807e-05 -3.17993e-05 3.98375e-05
3 1 8.33134 2.16851 12.4041 -3.11368e-06 -6.41055e-05 6.61735e-05 9.21854e-05
4 1 10.2229 4.54787 2.52299 9.86512e-06 4.11729e-05 -1.55878e-05 4.51166e-05
5 1 7.85284 4.52674 2.09263 4.71018e-06 2.53171e-05 -8.55894e-06 2.71367e-05
6 1 7.62801 5.57551 4.31623 3.57075e-05 5.08126e-05 2.00673e-05 6.5266e-05
7 1 5.89344 4.59385 5.82708 8.38903e-06 -4.6004e-05 6.91081e-05 8.34426e-05
8 1 8.03363 5.28389 8.62011 3.30654e-05 -2.66447e-05 -3.07769e-05 5.2445e-05
9 1 6.70028 3.36229 7.92108 1.65841e-05 -1.20178e-05 2.69651e-05 3.38611e-05
10 1 6.35176 4.2662 10.2713 1.29767e-05 -2.47833e-05 5.43842e-05 6.11576e-05
11 1 8.48579 6.2422 0.385244 -2.77894e-05 -3.20433e-05 -1.06453e-05 4.37304e-05
12 1 6.77551 6.59437 2.24494 5.81561e-06 2.11116e-05 -2.69709e-05 3.47412e-05
13 1 8.94866 7.6088 5.02762 3.55725e-05 -4.10778e-06 -1.01502e-05 3.72197e-05
14 1 7.2577 6.55755 6.60402 3.46921e-05 1.1567e-05 -1.13704e-05 3.82965e-05
15 1 9.36237 7.25742 9.28899 3.53148e-05 -2.22383e-05 -3.36978e-05 5.36398e-05
16 1 7.69274 6.19921 10.8968 -4.37257e-05 -2.08259e-05 2.57368e-07 4.84327e-05
17 1 9.83139 8.34921 1.08664 -1.0973e-05 4.74957e-05 2.18411e-05 5.34161e-05
18 1 9.57024 4.19304 0.183836 -1.81769e-05 4.51025e-05 4.53767e-06 4.88388e-05
19 1 7.42336 8.29699 0.604132 9.44566e-06 -2.83182e-05 -1.57005e-05 3.3729e-05
20 1 5.65003 2.23283 5.91678 -1.25337e-05 -1.22948e-06 4.2515e-05 4.43411e-05
21 1 7.68968 0.363433 1.56966 4.90828e-07 1.28298e-05 5.095e-05 5.25428e-05
22 1 4.99789 8.15809 0.153683 -4.09504e-05 -4.55651e-05 -8.16316e-06 6.18042e-05
23 1 5.6557 8.58741 2.50177 1.98756e-07 2.47962e-05 -3.73743e-05 4.48523e-05
24 1 7.86562 9.85159 5.31216 1.97262e-05 -2.04618e-05 -6.21869e-05 6.83741e-05
25 1 6.17302 8.87468 6.92484 -8.39064e-07 1.52838e-05 1.61822e-05 2.22747e-05
26 1 5.81581 9.80835 9.18322 -9.15502e-06 1.90318e-05 1.74759e-05 2.74122e-05
27 1 4.12135 8.84732 10.8094 -2.20702e-05 3.70667e-05 -3.38107e-05 5.48106e-05
28 1 8.77508 10.4202 1.34285 -1.12049e-05 1.14618e-05 -6.13516e-05 6.34109e-05
29 1 7.16595 3.1403 4.03594 5.04134e-06 4.65353e-05 0.000100173 0.000110569
30 1 7.0368 10.7657 3.23853 -9.01853e-06 -8.80134e-05 3.10893e-05 9.37776e-05
31 1 5.06513 11.1772 7.24758 1.14324e-05 3.91997e-06 3.14806e-06 1.24891e-05
32 1 5.46957 10.7215 11.4783 -2.55955e-05 1.38392e-05 3.76591e-05 4.75905e-05
33 1 7.12459 0.180542 12.0914 -3.94868e-05 0.000170944 0.000138001 0.000223216
34 1 8.3221 0.96614 3.8963 -5.88595e-06 1.38833e-05 2.69546e-05 3.08859e-05
35 1 6.41145 0.979769 7.92104 5.33309e-06 1.80574e-06 5.36053e-05 5.39002e-05
36 1 7.17812 11.6889 9.8186 1.61271e-05 6.6047e-06 3.68009e-05 4.07187e-05
37 1 8.93342 2.47938 2.02185 1.37648e-05 -7.62366e-05 3.96783e-05 8.70394e-05
38 1 6.74207 0.0253848 5.54659 -2.0348e-05 -1.82007e-05 9.50754e-05 9.89173e-05
39 1 5.24409 6.55278 10.4989 -4.55635e-05 1.71828e-06 3.1215e-05 5.52572e-05
40 1 10.2744 9.66713 5.72514 7.53305e-06 -7.18525e-06 -1.89506e-05 2.16218e-05
41 1 8.26324 9.47044 9.5265 -2.38494e-05 1.32622e-05 -1.94319e-05 3.35005e-05
42 1 8.36155 4.3463 6.28459 4.70236e-06 -9.97083e-06 -5.00297e-09 1.1024e-05
43 1 8.80959 3.97382 10.6504 -5.7982e-06 2.1314e-06 3.2494e-05 3.3076e-05
44 1 0.141897 7.99429 12.023 1.84977e-05 1.42821e-05 -5.36223e-05 5.84935e-05
45 1 9.18969 6.64622 2.73074 4.02272e-06 -3.70523e-05 -5.93458e-05 7.00784e-05
46 1 11.3691 7.46818 5.48331 5.4907e-06 -1.39042e-05 3.23588e-06 1.52953e-05
47 1 9.69719 6.34029 7.03279 1.99198e-05 -2.31155e-05 -2.00252e-05 3.64984e-05
48 1 10.1738 5.95485 11.3192 -1.82692e-05 -2.88331e-06 -1.27418e-05 2.24595e-05
49 1 10.086 5.42664 4.76287 6.48753e-05 -5.45023e-05 -2.24145e-05 8.76454e-05
50 1 0.822144 8.39611 1.56881 6.12659e-05 2.38509e-05 -3.08104e-05 7.26062e-05
51 1 10.6848 9.27702 9.98892 1.85706e-05 1.03395e-05 -5.22183e-06 2.18869e-05
52 1 9.09918 8.10049 11.5572 -4.10893e-05 2.93786e-05 -3.31249e-05 6.04044e-05
53 1 10.5116 8.75096 3.44929 1.9212e-05 1.81566e-05 -2.47374e-05 3.62036e-05
54 1 10.4923 1.78809 6.6659 4.49351e-07 2.17271e-05 -5.25345e-05 5.68519e-05
55 1 9.93153 10.5934 7.98181 -3.88883e-06 1.0392e-05 -5.51259e-05 5.62315e-05
56 1 11.2548 0.499775 8.73961 1.58632e-05 -8.52707e-06 -4.67148e-05 5.00662e-05
57 1 10.4658 10.1013 12.2783 -1.11093e-05 5.56421e-05 -2.83384e-05 6.34233e-05
58 1 11.0269 8.3726 7.73612 8.85646e-06 -3.05034e-05 -8.16108e-06 3.27948e-05
59 1 8.60477 8.56463 7.28218 4.30514e-05 7.20066e-07 -4.84069e-05 6.47856e-05
60 1 11.3337 2.49466 2.5369 4.22304e-05 -8.64447e-05 -5.55176e-05 0.000111078
61 1 9.94449 1.73918 10.4942 1.33099e-05 2.37175e-05 2.77731e-05 3.88718e-05
62 1 6.58479 8.44435 11.1309 2.70279e-06 2.78443e-05 -2.31585e-05 3.6317e-05
63 1 8.1016 8.71226 2.96601 -4.31623e-05 3.21899e-05 -2.4109e-05 5.89951e-05
64 1 9.17016 11.8872 5.96758 -4.31533e-05 -1.18323e-05 -2.85945e-05 5.31023e-05
65 1 7.50998 10.8388 7.54624 2.46407e-05 3.94552e-05 1.57774e-05 4.91203e-05
66 1 9.55409 11.458 10.2617 4.52318e-06 8.55723e-06 -5.60259e-05 5.68558e-05
67 1 8.04405 10.1978 11.8347 3.97061e-05 -0.000128474 -3.78595e-05 0.000139698
68 1 11.1618 10.4734 1.80527 -2.01817e-05 3.59081e-06 -6.70542e-05 7.01175e-05
69 1 10.892 6.27193 0.850181 -2.49185e-05 -6.98971e-06 -3.94144e-05 4.71517e-05
70 1 9.43623 10.8929 3.69517 -1.78135e-05 2.22415e-05 -3.54043e-05 4.54475e-05
71 1 9.46637 0.113676 12.5218 6.47158e-05 2.55458e-05 -5.85385e-05 9.09257e-05
72 1 10.72 2.15172 0.118452 4.05928e-05 7.54261e-06 -3.42123e-07 4.1289e-05
73 1 10.0896 0.448567 2.0201 -5.49578e-05 4.53124e-05 -8.97718e-05 0.000114597
74 1 9.62976 3.05455 4.48885 6.26644e-05 -3.55411e-05 2.96972e-05 7.79225e-05
75 1 8.07152 1.98433 6.22875 -4.16658e-05 2.9487e-05 1.43598e-05 5.30257e-05
76 1 9.13248 3.07582 8.34896 -4.40676e-05 1.42115e-05 8.49551e-06 4.70754e-05
77 1 7.47519 1.99356 10.0045 1.83909e-05 -1.46403e-05 4.73587e-06 2.3979e-05
78 1 8.84304 0.708371 8.2926 -4.99182e-06 -1.46827e-05 -1.71798e-05 2.3144e-05
79 1 10.7991 4.14652 6.73258 -1.27062e-05 -4.9915e-05 -1.30251e-05 5.31282e-05
80 1 6.92476 7.51991 8.87188 -4.82384e-06 2.32462e-05 3.2147e-06 2.3958e-05
81 1 6.53219 7.89772 4.66269 5.89524e-05 1.19167e-05 2.98845e-05 6.71601e-05
82 1 2.292 0.299962 9.18754 -9.53801e-06 -2.38672e-05 2.05311e-05 3.28959e-05
83 1 2.80054 0.119702 0.56263 -2.00064e-05 -2.14109e-05 -5.08768e-05 5.87123e-05
84 1 1.84399 0.672443 4.82174 1.35815e-05 2.38162e-05 -1.74552e-05 3.25016e-05
85 1 1.52108 1.57043 7.12317 -1.06111e-05 4.57787e-05 -4.87617e-05 6.77199e-05
86 1 0.430443 0.0985048 0.132377 4.84739e-06 1.12382e-05 -2.98962e-05 3.23045e-05
87 1 4.11943 2.27289 1.18536 2.299e-05 -9.60982e-06 7.67422e-05 8.06861e-05
88 1 2.32207 2.47792 3.06793 -4.26123e-05 -9.5203e-05 1.07473e-05 0.000104857
89 1 0.479774 10.7904 4.15303 1.91053e-05 -3.08592e-05 -3.28672e-05 4.89649e-05
90 1 3.52879 4.4659 3.38037 -8.24366e-05 0.000210665 7.41619e-05 0.000238066
91 1 1.48338 4.85804 9.50455 1.22783e-05 -2.52585e-05 1.35273e-05 3.11727e-05
92 1 1.02378 1.59175 10.9833 -1.3032e-05 6.88535e-06 -2.3038e-05 2.73494e-05
93 1 3.48764 1.50595 11.4361 -0.000100222 2.93813e-06 -1.89074e-05 0.000102032
94 1 3.61682 5.97985 12.2336 3.59742e-05 -0.00014503 1.36114e-05 0.000150044
95 1 2.96372 4.28305 1.08538 1.58373e-05 -8.19658e-06 2.70851e-05 3.24285e-05
96 1 2.6094 6.54752 3.63753 6.10711e-05 -0.000116257 -2.30059e-05 0.000133322
97 1 1.81049 3.93788 7.17949 2.00508e-05 1.65264e-05 -2.42767e-05 3.556e-05
98 1 0.709038 2.9071 4.97798 7.97233e-06 2.39251e-05 1.46764e-05 2.91782e-05
99 1 3.14354 5.90627 7.92578 2.14142e-05 1.50237e-05 1.51309e-05 3.02196e-05
100 1 2.16775 10.5032 2.27016 -1.77313e-05 -6.96693e-06 -6.17264e-06 2.00259e-05
101 1 1.29116 9.48776 6.18323 8.98624e-06 -1.28909e-05 1.95195e-05 2.50587e-05
102 1 10.7813 0.870012 4.37011 -9.0955e-08 -2.84752e-05 -7.87618e-05 8.37512e-05
103 1 0.187727 11.6972 6.42582 1.7293e-05 8.61052e-06 -1.96734e-05 2.75723e-05
104 1 0.563823 4.19781 0.63526 6.60498e-06 4.24101e-05 1.07545e-05 4.42482e-05
105 1 1.187 4.5327 2.95032 -3.09021e-05 -3.37476e-06 5.1317e-05 5.9998e-05
106 1 0.161303 2.85819 8.80627 -1.91425e-05 1.65464e-05 -2.67599e-07 2.5304e-05
107 1 1.71997 2.16703 0.633425 3.10334e-05 6.88978e-06 5.21529e-06 3.2214e-05
108 1 1.21739 5.85228 11.7771 -4.07067e-05 2.31553e-05 -7.00259e-06 4.73522e-05
109 1 0.956341 10.4049 8.43941 1.02662e-05 -1.28683e-05 -1.72483e-06 1.65518e-05
110 1 0.721982 6.15175 7.49039 5.70759e-06 4.20124e-05 1.42064e-05 4.47151e-05
111 1 11.2726 3.7763 11.1021 -7.58272e-06 2.23173e-05 1.11502e-06 2.35967e-05
112 1 1.55435 8.64476 3.91504 -1.20783e-05 1.79147e-05 -9.44555e-06 2.35805e-05
113 1 1.0994 5.28717 5.21044 3.07177e-05 4.15494e-05 7.75946e-05 9.32248e-05
114 1 2.04874 8.18054 8.19 -1.28949e-05 -1.84572e-05 2.39173e-05 3.28479e-05
115 1 0.379101 7.07806 9.74708 -6.93169e-06 2.86611e-05 9.55454e-06 3.09967e-05
116 1 1.46379 10.0991 12.7415 -1.30848e-05 1.60683e-05 1.66867e-05 2.66054e-05
117 1 2.96088 10.5459 4.57533 -6.74791e-06 -1.67062e-05 2.64734e-05 3.2023e-05
118 1 10.4658 5.04803 9.04638 -5.19604e-05 -2.82057e-05 3.84599e-06 5.92473e-05
119 1 4.8377 6.9367 6.28885 1.64438e-05 3.86755e-05 -8.29786e-07 4.20342e-05
120 1 2.33148 3.68013 11.5757 3.13531e-05 5.19121e-05 5.78694e-05 8.38257e-05
121 1 2.55195 8.03311 12.5062 -5.85143e-05 7.76951e-05 -4.91936e-05 0.000108997
122 1 3.02553 11.1696 11.1559 -1.47115e-05 5.47428e-06 -4.43424e-05 4.70388e-05
123 1 6.53399 2.37362 1.4698 1.99443e-06 -6.80322e-05 4.72591e-05 8.286e-05
124 1 3.51469 0.526948 2.89234 -1.64987e-05 4.55671e-05 4.35865e-06 4.86577e-05
125 1 4.84248 2.65136 3.63596 0.000230406 -0.000142603 7.2911e-05 0.000280604
126 1 3.17835 2.65265 5.46754 -2.53518e-05 1.35176e-05 2.77983e-05 3.99773e-05
127 1 4.24209 3.66647 7.55093 2.92739e-05 -1.85254e-05 -2.73959e-05 4.41666e-05
128 1 2.58205 2.66193 9.24329 -2.30236e-05 2.06552e-05 2.0268e-05 3.69799e-05
129 1 3.95329 1.28395 7.55094 -3.66218e-05 -1.44441e-05 -3.0839e-05 5.00083e-05
130 1 5.81103 1.99526 11.8361 0.000114655 -0.000188832 -3.47628e-05 0.000223633
131 1 5.45624 4.3983 1.86219 -8.28062e-06 3.85651e-05 4.35046e-05 5.87238e-05
132 1 5.18395 6.02358 3.99377 2.44004e-05 -6.31777e-05 -2.74771e-05 7.30876e-05
133 1 3.47538 5.05623 5.65331 3.38442e-05 4.94148e-05 4.38878e-06 6.00543e-05
134 1 5.58842 5.56795 8.22446 2.67247e-05 -5.37403e-05 4.91648e-05 7.75848e-05
135 1 3.91149 4.62088 9.92538 5.70631e-06 -1.69326e-05 5.75817e-05 6.02904e-05
136 1 7.13884 4.11961 12.5797 -3.03085e-05 -1.48105e-05 4.29052e-05 5.45785e-05
137 1 4.29606 6.41147 1.75455 9.06094e-06 -7.7451e-05 1.9524e-05 8.03862e-05
138 1 6.03908 6.1141 12.7681 -1.79635e-06 -4.1065e-05 -9.90158e-06 4.22801e-05
139 1 4.72079 3.95473 12.2056 -9.07781e-05 2.2463e-05 2.43564e-05 9.66358e-05
140 1 5.93276 0.691864 3.26641 -0.000154831 0.000164706 3.17541e-05 0.000228274
141 1 0.567512 11.3186 10.7093 -3.91835e-05 3.97722e-05 1.11517e-05 5.69345e-05
142 1 1.87843 6.32512 1.31257 -2.17646e-05 6.23688e-06 -1.77959e-05 2.87974e-05
143 1 4.06879 8.30075 4.34124 2.85688e-05 -2.78112e-05 3.77136e-05 5.48813e-05
144 1 2.39028 7.27471 5.94568 2.9025e-05 1.52117e-05 4.7393e-05 5.76189e-05
145 1 4.4805 7.87039 8.54722 9.62851e-06 3.10659e-05 8.98668e-06 3.37425e-05
146 1 2.78791 6.89355 10.1599 8.47665e-06 6.68718e-06 1.01723e-05 1.4834e-05
147 1 3.87798 10.151 0.410451 -1.8209e-05 -7.50385e-06 9.79603e-06 2.19964e-05
148 1 3.23019 8.44845 2.05132 2.20845e-06 -3.56009e-05 -3.43467e-05 4.95176e-05
149 1 5.19718 0.248214 0.792859 -5.28102e-06 6.16839e-06 -1.2534e-05 1.49345e-05
150 1 5.40952 10.1923 4.97312 -9.31048e-06 -4.775e-05 3.58859e-05 6.04529e-05
151 1 3.39584 10.1876 8.86812 -1.13284e-05 1.76331e-05 -3.42447e-05 4.01492e-05
152 1 1.70487 9.13638 10.4446 1.02245e-06 -2.97221e-06 -4.09181e-05 4.10386e-05
153 1 6.35745 10.334 0.900794 -8.35464e-05 1.95417e-05 5.65538e-06 8.59875e-05
154 1 4.61452 10.6314 2.70406 -6.354e-06 -2.14258e-05 3.26483e-05 3.95645e-05
155 1 4.30183 0.380031 5.2007 -3.49898e-05 -5.34049e-06 -4.44393e-05 5.68125e-05
156 1 2.61992 11.4613 6.85202 -2.2089e-05 2.37475e-05 -5.5249e-05 6.4065e-05
157 1 4.76011 0.0523824 9.64497 -2.44493e-06 1.67692e-05 9.99011e-07 1.69759e-05
158 1 3.72878 9.22521 6.60024 2.39921e-05 5.03951e-05 9.04379e-06 5.65427e-05
159 1 0.18769 6.64398 3.19392 1.2442e-05 1.3572e-05 -4.04295e-05 4.44247e-05
