ITEM: TIMESTEP
0
ITEM: NUMBER OF ATOMS
156
ITEM: BOX BOUNDS pp pp pp
0.0000000000000000e+00 1.1396901000000000e+01
0.0000000000000000e+00 1.2680864000000000e+01
0.0000000000000000e+00 1.2228524999999999e+01
ITEM: ATOMS id type x y z fx fy fz v_fmag
1 1 0.31499 0.0278518 11.7131 3.91273e-05 4.74373e-05 -2.99015e-05 6.83765e-05
2 1 9.27648 0.517382 11.6319 2.19828e-05 4.79283e-05 -3.6438e-06 5.28549e-05
3 1 7.41631 4.31838 0.761553 2.4408e-05 -4.12377e-05 4.20256e-05 6.37374e-05
4 1 7.03521 3.21099 2.97858 -1.62519e-05 1.67898e-05 -1.36222e-05 2.70478e-05
5 1 6.62561 2.12072 5.19363 2.17853e-05 4.98151e-05 2.72661e-05 6.08242e-05
6 1 7.8277 3.08188 7.07326 2.12179e-05 1.71117e-05 1.58128e-05 3.15128e-05
7 1 7.28066 2.05891 9.31916 2.27408e-05 1.72055e-05 -6.0966e-05 6.73054e-05
8 1 8.54207 2.95613 11.2046 -2.41363e-06 1.04435e-05 3.22101e-05 3.39467e-05
9 1 4.98909 4.81218 0.675138 5.02726e-05 -1.86591e-05 3.93866e-06 5.37682e-05
10 1 6.28851 5.67205 2.5463 1.58936e-05 1.47103e-05 7.84955e-06 2.3035e-05
11 1 5.91187 4.56977 4.76511 4.8158e-06 2.51728e-05 3.70435e-06 2.58956e-05
12 1 7.18533 5.44941 6.65273 1.16687e-05 -1.37962e-05 -7.13629e-06 1.94274e-05
13 1 6.64096 4.42606 8.90042 -2.72145e-05 4.17606e-06 1.61432e-05 3.19167e-05
14 1 7.82983 5.40956 10.7758 -9.90288e-06 4.64885e-05 -1.72862e-05 5.05773e-05
15 1 6.68612 6.78611 0.334923 2.64551e-05 2.65534e-05 -6.0844e-05 7.14629e-05
16 1 7.95156 7.64812 2.23303 3.64703e-05 2.05962e-05 -1.17296e-05 4.34957e-05
17 1 9.69024 1.5925 9.40204 -3.83619e-05 2.94352e-05 -7.70196e-05 9.09401e-05
18 1 8.44433 0.729637 7.49576 -3.37445e-05 3.99567e-05 5.39792e-06 5.25772e-05
19 1 7.76903 0.744705 3.40519 -7.80807e-06 1.50894e-05 3.55558e-06 1.73579e-05
20 1 8.16041 1.85691 1.19445 2.92037e-05 -8.0519e-06 -3.55156e-05 4.66802e-05
21 1 5.52433 8.13856 2.15922 -2.36551e-05 5.63836e-06 2.93406e-05 3.81081e-05
22 1 2.72799 7.5063 4.26214 3.45175e-05 2.72731e-06 1.64683e-05 3.83419e-05
23 1 4.09251 8.2985 6.14318 3.18778e-05 -6.64891e-05 1.17044e-05 7.46591e-05
24 1 3.63917 7.23533 8.39559 7.91248e-06 1.13154e-05 -7.09831e-06 1.55252e-05
25 1 4.72427 8.39385 10.2354 3.46488e-05 3.40175e-05 -2.03058e-06 4.85989e-05
26 1 4.80413 10.5925 1.81171 1.35491e-06 -4.11948e-06 -1.65252e-05 1.70848e-05
27 1 6.07144 11.4584 3.72437 1.87196e-05 -1.19608e-05 -9.50085e-06 2.41609e-05
28 1 5.17008 7.00829 4.34092 -1.65396e-05 -9.68362e-05 -8.03357e-05 0.000126904
29 1 4.35757 9.49872 3.99851 -2.00834e-05 -5.62735e-05 -2.2269e-05 6.37648e-05
30 1 3.76528 9.60395 8.06075 0.000464865 -9.08019e-05 -6.01568e-05 0.000477455
31 1 3.87401 10.9176 9.99159 1.41815e-05 -7.09232e-06 7.82456e-06 1.76816e-05
32 1 3.54131 9.72229 12.1235 1.27755e-05 -3.10773e-06 -5.05769e-05 5.22579e-05
33 1 6.49783 12.5593 1.51738 -1.59479e-05 -9.19046e-06 -3.13055e-05 3.63158e-05
34 1 7.33155 12.3283 5.63248 -5.48779e-05 4.7866e-06 -2.43672e-05 6.0235e-05
35 1 6.4887 11.5096 7.82161 -8.94995e-05 1.85329e-05 -7.00604e-05 0.000115161
36 1 5.21436 11.7029 11.8611 6.20476e-05 9.89247e-06 -9.61182e-06 6.35622e-05
37 1 5.58243 10.349 5.92891 -2.85391e-05 1.89356e-05 6.8903e-05 7.69458e-05
38 1 4.26267 7.2813 0.250743 2.52031e-05 7.65196e-06 -2.20032e-05 3.43205e-05
39 1 6.52775 7.82385 6.22344 4.31535e-05 4.28149e-05 1.76731e-05 6.33062e-05
40 1 7.13073 7.89304 10.3267 3.84317e-05 6.04049e-05 -2.02281e-05 7.4397e-05
41 1 8.33654 4.08166 4.85049 3.71965e-05 -5.0297e-06 -4.08079e-05 5.54451e-05
42 1 9.5944 4.98363 6.73551 -1.82941e-05 -1.74079e-06 6.76082e-06 1.9581e-05
43 1 9.04691 3.96039 8.98094 5.48759e-06 3.09412e-05 1.1055e-06 3.14435e-05
44 1 10.2527 4.91513 10.8619 1.72894e-05 1.5901e-05 -4.21514e-06 2.38649e-05
45 1 9.10962 6.29161 0.421483 4.54922e-05 -1.20549e-06 1.93343e-05 4.94449e-05
46 1 0.67743 9.12496 2.01155 -3.96231e-05 1.40007e-05 2.07505e-05 4.68678e-05
47 1 7.60362 6.52114 4.42303 -6.32779e-05 4.94172e-05 -1.07086e-05 8.09989e-05
48 1 8.93884 7.36169 6.31102 3.5151e-06 -1.92106e-06 -2.69719e-05 2.72678e-05
49 1 8.42851 6.31437 8.55939 3.79429e-06 2.51843e-05 1.29899e-05 2.85899e-05
50 1 9.54602 7.38661 10.4249 -9.07204e-05 2.21556e-05 -1.76594e-05 9.50416e-05
51 1 9.651 9.61479 1.94388 -1.33868e-05 2.16448e-05 2.52022e-05 3.5817e-05
52 1 11.3546 11.5789 1.6648 2.75527e-05 -3.00028e-05 1.83183e-05 4.46641e-05
53 1 9.22148 8.51247 4.12516 -2.61037e-05 -1.42193e-05 -3.65031e-05 4.70751e-05
54 1 10.5254 9.32033 6.00488 5.08744e-06 2.8568e-06 5.28989e-05 5.32197e-05
55 1 8.10462 8.67869 8.1547 3.76642e-05 -2.17691e-06 3.80368e-06 3.79184e-05
56 1 8.71965 5.17997 2.63246 3.58604e-05 2.63868e-06 1.81133e-06 3.6003e-05
57 1 9.84429 3.82515 0.848601 2.76761e-05 -2.37055e-06 1.91029e-05 3.37121e-05
58 1 10.9671 2.46687 11.2904 7.1852e-05 -3.88253e-05 9.77309e-06 8.22534e-05
59 1 10.2334 2.61662 7.15368 2.42082e-05 4.62824e-05 -2.41801e-05 5.75568e-05
60 1 7.22752 10.1033 1.87832 3.73069e-05 -4.05299e-05 -1.93905e-05 5.83992e-05
61 1 8.49665 10.9743 3.79148 -2.49812e-05 1.29979e-05 -5.69311e-06 2.873e-05
62 1 6.784 9.00672 4.06193 -2.13751e-05 -4.90314e-05 -1.15862e-05 5.47285e-05
63 1 8.03822 9.84574 5.96532 -7.93831e-06 3.52364e-05 -1.76699e-06 3.61627e-05
64 1 5.91342 9.14336 8.09044 -0.000342175 8.58909e-05 -1.11935e-05 0.000352968
65 1 6.37 10.3883 10.0403 1.50111e-05 4.79519e-05 -2.11429e-05 5.45137e-05
66 1 5.95976 9.2314 12.1923 1.14804e-05 2.02407e-05 1.52378e-05 2.7815e-05
67 1 6.0306 6.77365 8.47532 2.11114e-05 -2.20195e-05 4.33353e-06 3.08112e-05
68 1 8.92818 12.0697 1.59116 1.53214e-05 4.52815e-05 1.05717e-05 4.89584e-05
69 1 8.72575 11.045 7.89798 -5.35231e-05 1.44581e-05 -1.64603e-05 5.78334e-05
70 1 7.66143 11.2039 11.9251 4.85921e-05 9.34625e-06 -4.53269e-05 6.71049e-05
71 1 10.1923 0.2494 3.4922 -1.62965e-05 -3.83511e-05 -1.09322e-05 4.30801e-05
72 1 10.3506 11.8993 9.83139 -1.64069e-05 6.21057e-05 5.18249e-05 8.25356e-05
73 1 9.46313 2.71771 3.06557 -1.23465e-05 1.44429e-05 8.42009e-06 2.0783e-05
74 1 10.7591 3.59689 4.93442 5.95249e-05 3.05193e-06 2.10946e-05 6.32259e-05
75 1 9.04838 1.62633 5.27969 1.01841e-05 -2.20048e-06 -2.23747e-05 2.46817e-05
76 1 9.74457 11.8207 5.73172 3.01822e-06 -2.06258e-05 -8.78722e-07 2.0864e-05
77 1 5.40848 5.90283 10.6902 5.43717e-06 2.05446e-06 -2.89604e-07 5.81958e-06
78 1 4.23578 4.89307 8.81931 -5.47287e-05 2.24225e-05 -4.5243e-05 7.44643e-05
79 1 4.77368 5.92183 6.569 5.97277e-06 -2.49065e-05 5.16074e-05 5.76136e-05
80 1 0.56997 6.88984 10.5158 -6.59254e-06 3.72643e-06 -9.16727e-06 1.18906e-05
81 1 1.21923 12.4359 3.57472 3.23292e-05 -1.61672e-05 4.06349e-05 5.43852e-05
82 1 0.752809 11.3238 5.81773 -2.23118e-05 -8.10988e-06 2.10194e-05 3.1708e-05
83 1 1.83207 12.483 7.6591 -4.18062e-05 -2.68897e-05 1.78587e-05 5.28181e-05
84 1 1.62888 0.867503 1.36301 -4.33113e-06 -2.25647e-05 6.21667e-05 6.62769e-05
85 1 3.303 2.83745 1.02264 3.1683e-05 -1.54846e-05 -2.64534e-05 4.40836e-05
86 1 2.91972 1.73019 3.23564 -1.31757e-05 1.66062e-05 1.12092e-05 2.39794e-05
87 1 2.49203 0.642082 5.44792 6.37149e-06 -4.50969e-06 4.50626e-05 4.57337e-05
88 1 3.64563 1.66138 7.32359 -1.6577e-05 -1.76965e-05 2.46188e-05 3.4555e-05
89 1 3.11907 0.630625 9.572 1.32599e-05 -2.18327e-05 -1.36934e-05 2.89827e-05
90 1 4.42244 1.48083 11.4629 -1.23768e-07 -3.46674e-05 5.04955e-06 3.50334e-05
91 1 0.875163 3.33136 0.935802 1.14505e-05 -5.6232e-05 -1.12077e-05 5.84702e-05
92 1 2.17959 4.19877 2.80433 2.48964e-05 7.42354e-05 -6.60121e-07 7.83018e-05
93 1 1.78304 3.10919 5.01885 -4.87676e-05 -9.40066e-06 -3.61464e-05 6.14265e-05
94 1 3.01326 4.03081 6.9062 2.15928e-05 -5.05535e-05 1.92588e-05 5.82478e-05
95 1 1.27748 4.42059 10.9491 7.53568e-05 -2.43217e-05 1.57204e-05 8.07299e-05
96 1 0.0569991 3.48892 9.06345 5.41031e-05 1.40301e-05 2.10268e-05 5.97169e-05
97 1 0.605277 4.51294 6.81934 -6.39413e-06 -2.52767e-05 1.39865e-06 2.61104e-05
98 1 1.99644 1.97339 11.3768 3.27171e-05 -3.56046e-05 -3.49082e-05 5.96379e-05
99 1 10.8417 0.27064 7.57891 3.18372e-06 9.52006e-06 -3.36192e-05 3.50858e-05
100 1 10.9054 10.5814 7.95447 0.000141937 -3.84741e-05 3.46091e-05 0.000151077
101 1 1.39663 11.4202 9.91139 4.94474e-06 -3.07537e-05 -1.40072e-06 3.11801e-05
102 1 10.592 1.3638 1.28048 -5.08675e-06 -1.58951e-05 2.68991e-05 3.16558e-05
103 1 11.1487 4.69069 2.71805 3.44293e-05 -1.58951e-05 -1.61218e-05 4.12061e-05
104 1 10.031 6.04104 4.50781 -5.30964e-06 4.06929e-05 1.45729e-05 4.35485e-05
105 1 10.8079 8.26111 0.0980484 8.17272e-07 -6.15337e-06 -3.31076e-05 3.36845e-05
106 1 2.46485 3.00769 9.14932 -1.77847e-05 -3.16067e-05 3.6724e-05 5.16132e-05
107 1 10.3829 7.15862 2.30665 -2.34895e-05 -1.61671e-05 -1.97212e-05 3.46707e-05
108 1 10.0962 10.7107 11.9881 -9.21904e-06 4.90042e-05 6.00375e-06 5.0224e-05
109 1 10.9179 10.4866 3.85874 1.44765e-05 -2.75919e-05 6.6752e-06 3.1866e-05
110 1 10.3567 8.21381 8.23138 6.93138e-05 -1.32619e-06 -4.69333e-06 6.94852e-05
111 1 0.493311 2.22403 3.1514 -1.06561e-05 1.71046e-05 1.18157e-05 2.33609e-05
112 1 0.0723899 1.13406 5.36446 3.01693e-05 -1.74026e-05 1.94231e-05 3.98785e-05
113 1 1.24168 2.1466 7.23575 -5.80241e-05 -6.46102e-06 1.49948e-05 6.02776e-05
114 1 0.705626 1.11729 9.48611 -3.87915e-05 4.33819e-05 -1.85052e-05 6.10672e-05
115 1 10.8277 5.85236 8.64473 -1.14014e-05 7.06216e-06 1.67134e-05 2.1429e-05
116 1 3.6979 3.92762 11.0365 -2.15774e-05 -1.73589e-06 -8.45609e-06 2.32402e-05
117 1 0.137415 5.80003 0.505325 -2.71767e-05 -3.64179e-06 2.91936e-05 4.00512e-05
118 1 1.42036 6.66555 2.38262 -4.21079e-05 9.19936e-06 2.16061e-06 4.31552e-05
119 1 2.75967 12.2081 11.7906 2.79424e-05 -3.09337e-05 3.11412e-05 5.20331e-05
120 1 6.84815 0.998223 11.5473 4.24741e-05 1.51842e-05 2.84559e-05 5.33324e-05
121 1 5.34442 1.23631 3.32123 5.59753e-06 -1.38418e-05 3.34708e-05 3.665e-05
122 1 4.91087 0.145666 5.54108 -4.39522e-05 9.6699e-06 -3.19397e-05 5.51855e-05
123 1 6.04531 1.19019 7.41073 3.8262e-05 2.57937e-05 1.86904e-05 4.97858e-05
124 1 5.52936 0.148231 9.65727 -1.11545e-05 -4.49629e-05 -3.78894e-05 5.98473e-05
125 1 7.9358 12.3625 9.74492 1.85959e-05 -1.92947e-06 3.13202e-05 3.64758e-05
126 1 4.18499 11.9791 7.74538 3.31639e-06 1.65372e-05 -2.00242e-05 2.6181e-05
127 1 5.73087 2.3463 1.10878 4.60361e-05 -3.11095e-05 -2.60505e-05 6.13657e-05
128 1 4.20356 2.61531 5.10669 2.60323e-05 -8.40866e-06 7.33289e-06 2.83224e-05
129 1 5.42093 3.5513 6.99147 1.26739e-05 -9.20936e-06 -2.69014e-06 1.58958e-05
130 1 4.87272 2.52715 9.23591 2.16201e-05 2.85171e-05 9.87534e-06 3.71238e-05
131 1 6.11898 3.44126 11.1204 -3.57334e-05 3.38124e-05 7.43292e-06 4.97534e-05
132 1 2.56244 5.30573 0.590929 -1.25348e-05 3.30907e-05 5.18983e-05 6.28136e-05
133 1 3.85533 6.16784 2.46257 -4.94132e-05 4.98152e-06 -6.97492e-06 5.0151e-05
134 1 3.48586 5.06258 4.67864 -3.91015e-05 -1.31785e-05 8.44591e-06 4.21181e-05
135 1 4.60742 3.70469 2.89128 2.06764e-05 1.84428e-05 4.00828e-05 4.87266e-05
136 1 8.85089 9.86646 10.0792 5.15001e-06 2.77774e-05 -1.899e-05 3.404e-05
137 1 3.64476 11.9433 3.65451 -2.47193e-05 8.67453e-06 -2.8387e-05 3.86279e-05
138 1 11.2991 9.36979 10.1143 -3.49087e-05 -1.83693e-05 -1.45195e-06 3.94735e-05
139 1 1.05967 5.55625 4.59234 -5.75476e-05 2.71727e-05 6.1974e-05 8.88305e-05
140 1 2.36012 6.40671 6.48332 1.58479e-05 -1.93931e-05 5.42868e-05 5.97855e-05
141 1 1.83106 5.37733 8.73228 6.34483e-05 -8.96234e-06 6.2453e-05 8.94784e-05
142 1 2.98861 6.39388 10.6078 -2.22983e-05 -4.5346e-05 7.2892e-06 5.1055e-05
143 1 1.83741 7.77418 0.170595 1.07965e-05 1.87002e-05 3.06874e-05 3.7523e-05
144 1 3.10015 8.6314 2.085 -5.71962e-05 -9.25773e-06 -3.74137e-05 6.89703e-05
145 1 0.27423 8.01172 4.18994 1.07447e-05 2.47495e-05 -2.75137e-05 3.85355e-05
146 1 4.06384 0.369915 1.44242 -4.75244e-05 -4.31133e-05 1.81763e-05 6.66911e-05
147 1 1.62231 8.79384 6.05991 6.23449e-05 -5.29254e-05 1.58292e-05 8.3298e-05
148 1 1.27692 7.73816 8.30946 -6.6262e-05 -7.92336e-05 7.83203e-06 0.000103585
149 1 1.12337 10.218 12.0526 -1.34715e-06 1.77442e-05 1.40517e-05 2.26743e-05
150 1 2.38136 11.0855 1.73932 6.88972e-06 -2.74734e-05 -6.42432e-06 2.90436e-05
151 1 1.93894 9.9946 3.92871 -3.65775e-05 -5.73712e-05 1.14744e-06 6.80491e-05
152 1 3.15841 10.8311 5.88778 8.69454e-06 -4.97767e-06 -3.8788e-05 4.00609e-05
153 1 1.64825 10.1136 7.98698 -0.000531483 5.50522e-05 -5.03388e-06 0.000534351
154 1 2.31967 8.88677 10.1627 -5.92979e-05 -3.10125e-05 1.19682e-05 6.79798e-05
155 1 11.3458 6.89177 6.39815 -1.74488e-07 2.96877e-06 -6.59729e-06 7.23659e-06
156 1 8.38195 8.74455 0.0312651 6.40499e-06 -4.93657e-05 -4.23212e-05 6.53382e-05
