ITEM: TIMESTEP
0
ITEM: NUMBER OF ATOMS
128
ITEM: BOX BOUNDS pp pp pp
0.0000000000000000e+00 1.1400361000000000e+01
0.0000000000000000e+00 1.2098903999999999e+01
0.0000000000000000e+00 1.2816801000000000e+01
ITEM: ATOMS id type x y z fx fy fz v_fmag
1 1 0.527733 0.880377 1.05806 -2.7066e-05 9.69776e-06 -6.29176e-06 2.94313e-05
2 1 5.3647 6.85717 9.61779 -2.81069e-05 2.48715e-05 1.97286e-05 4.24005e-05
3 1 4.44253 5.70015 7.47177 1.55163e-05 -2.34323e-05 -1.08977e-05 3.01428e-05
4 1 9.82898 6.28647 5.27381 1.86641e-06 -3.35357e-06 -1.63885e-05 1.68319e-05
5 1 6.91624 6.74065 3.21964 -1.6471e-05 8.74476e-06 1.9786e-05 2.71891e-05
6 1 8.40751 6.5931 1.11754 -4.00779e-05 1.72422e-05 -1.71854e-05 4.68921e-05
7 1 6.3872 4.09229 11.7545 3.39615e-06 1.40956e-05 2.05252e-05 2.51297e-05
8 1 7.31843 5.22708 9.61796 3.79594e-06 5.52592e-06 2.52904e-05 2.61639e-05
9 1 3.94812 3.10176 7.46044 4.38992e-06 7.44525e-06 -1.77861e-05 1.9775e-05
10 1 7.36666 5.24976 5.31754 -4.56292e-06 -1.25556e-05 -1.10807e-06 1.34049e-05
11 1 6.41986 4.10807 3.19566 -3.45218e-05 -2.13573e-05 2.13759e-06 4.06504e-05
12 1 7.93538 3.9872 1.06161 -1.33622e-05 2.2112e-05 4.66007e-06 2.62527e-05
13 1 5.93036 1.4867 11.7493 1.56576e-05 -1.79286e-05 5.9248e-06 2.45295e-05
14 1 6.87395 2.64118 9.60698 3.41137e-05 -1.01098e-05 9.98682e-06 3.69552e-05
15 1 4.41356 5.6994 11.7507 9.36452e-06 5.81004e-06 -6.12587e-06 1.26086e-05
16 1 5.93235 1.4845 7.46833 1.36213e-05 1.19116e-06 8.56453e-06 1.61342e-05
17 1 5.94171 1.49241 3.1893 -5.64186e-06 -8.11676e-06 -2.14628e-06 1.01153e-05
18 1 7.4548 1.36986 1.06135 -1.58769e-05 3.05657e-05 5.01141e-06 3.4806e-05
19 1 10.4 0.967138 3.18371 2.3324e-06 1.07899e-05 -2.59517e-05 2.8202e-05
20 1 5.4574 10.9877 11.7493 -3.30056e-05 2.70783e-05 2.65479e-05 5.02732e-05
21 1 5.48237 10.9863 7.42508 2.18476e-05 1.28697e-05 -2.26724e-05 3.40145e-05
22 1 7.92139 12.0168 3.19252 8.01311e-06 -2.28781e-05 -8.35666e-06 2.56408e-05
23 1 2.56023 7.37968 11.7613 2.70719e-06 1.7237e-06 -1.76879e-06 3.66451e-06
24 1 5.93022 9.53741 9.59136 2.28332e-05 1.55493e-05 -9.18229e-06 2.9111e-05
25 1 4.99864 8.35027 7.46604 8.22613e-06 2.29525e-06 1.08995e-05 1.38469e-05
26 1 8.30512 10.5859 5.32255 -3.66704e-06 1.38041e-05 -7.23893e-06 1.60125e-05
27 1 7.42563 9.36401 3.20297 1.42851e-05 -3.95617e-07 -8.65715e-06 1.67083e-05
28 1 8.93622 9.2798 1.08422 -1.796e-05 3.55573e-06 -2.06967e-05 2.76325e-05
29 1 1.92293 4.69356 11.7408 -1.12246e-05 -1.66889e-05 6.35033e-07 2.01225e-05
30 1 6.8988 2.65382 5.32566 -9.38333e-06 1.10178e-05 -1.02521e-05 1.77354e-05
31 1 2.90262 5.87311 9.60923 -3.81284e-06 1.15809e-05 1.89606e-05 2.25424e-05
32 1 0.982475 11.4873 3.19182 -1.98074e-05 1.17328e-05 8.60966e-06 2.45788e-05
33 1 10.3099 8.99122 5.26508 -1.10942e-05 -3.483e-07 -3.05698e-05 3.25225e-05
34 1 10.855 11.5972 5.28758 2.2077e-05 6.58456e-06 4.29662e-06 2.34353e-05
35 1 7.41167 9.3997 11.756 1.4829e-05 -1.2516e-05 6.93397e-06 2.06065e-05
36 1 9.93875 10.5104 7.40149 -5.45673e-06 -9.11816e-06 -8.63718e-06 1.36937e-05
37 1 0.481867 8.86701 3.19023 5.3998e-07 7.94938e-06 -2.68902e-05 2.80458e-05
38 1 6.85668 6.69877 11.7892 1.52879e-05 -2.5665e-05 1.98868e-05 3.58873e-05
39 1 7.75496 7.84356 9.68618 -2.55298e-05 1.16011e-05 -1.12417e-06 2.80646e-05
40 1 6.89418 6.68956 7.46846 2.1784e-05 -2.07218e-05 1.92716e-05 3.57118e-05
41 1 8.90225 5.14561 3.18671 2.90295e-05 -1.9689e-05 3.95035e-05 5.28289e-05
42 1 10.9223 7.71608 1.08935 2.54869e-05 -7.9881e-06 -7.46549e-06 2.77331e-05
43 1 8.82358 5.1043 11.7519 -7.28349e-06 1.16874e-05 2.00908e-06 1.39169e-05
44 1 0.391152 4.5936 9.62972 1.93527e-05 -3.96126e-07 2.08033e-05 2.84159e-05
45 1 6.39797 4.08328 7.46521 5.36957e-06 -1.15578e-05 9.4676e-06 1.58761e-05
46 1 9.37208 3.66308 5.31292 -1.29965e-05 1.47197e-05 -7.34898e-06 2.09663e-05
47 1 9.40052 7.78827 3.18751 2.07154e-05 -9.54242e-06 8.18969e-06 2.42334e-05
48 1 8.41377 2.53766 3.18819 -6.18955e-06 -2.14118e-05 3.16871e-06 2.25126e-05
49 1 8.38464 2.50608 11.7469 -5.20059e-06 1.30269e-05 5.65486e-06 1.51236e-05
50 1 9.32236 3.61801 9.60446 6.28471e-06 -1.50722e-05 9.64352e-06 1.89649e-05
51 1 8.39544 2.48894 7.46545 2.91388e-05 -1.29347e-05 3.64702e-05 4.84402e-05
52 1 11.358 2.09945 5.30654 7.82716e-06 -5.8996e-05 -7.60472e-06 5.99969e-05
53 1 8.88526 1.06717 5.32367 1.06035e-05 8.95025e-06 -6.11897e-06 1.51652e-05
54 1 9.92772 2.43266 1.06845 2.27235e-05 -2.03434e-05 -7.71238e-06 3.14593e-05
55 1 8.86726 1.04061 9.60945 1.10012e-06 9.59848e-06 -1.689e-05 1.94579e-05
56 1 7.93748 11.9846 11.7486 3.52513e-06 9.52682e-06 -2.44572e-05 2.64829e-05
57 1 7.92229 11.989 7.47637 1.9668e-06 1.8113e-05 -2.03102e-05 2.72847e-05
58 1 9.89106 10.4357 3.18459 1.62934e-05 3.05131e-06 1.24587e-05 2.07365e-05
59 1 4.98161 8.36278 11.7409 -2.14806e-05 1.36042e-05 -3.68392e-05 4.47618e-05
60 1 8.4333 10.5114 9.61417 4.80636e-06 -1.03061e-05 -4.5784e-06 1.22588e-05
61 1 7.47257 9.33322 7.47694 3.01127e-06 -1.49338e-05 1.57531e-05 2.19145e-05
62 1 10.4275 5.0772 1.03532 7.4697e-06 -5.8041e-06 -8.88016e-07 9.50119e-06
63 1 2.92642 5.81034 5.32182 6.77288e-06 -1.22491e-05 -5.94347e-06 1.52065e-05
64 1 7.86721 7.89563 5.33042 2.53164e-05 1.47354e-05 2.17786e-05 3.65015e-05
65 1 4.43881 5.69938 3.20046 2.45065e-06 -2.97792e-07 1.22285e-05 1.24752e-05
66 1 1.01526 3.50263 1.064 -1.70471e-05 8.27252e-06 1.29542e-05 2.29532e-05
67 1 3.48095 4.54434 1.06557 5.7164e-06 1.68466e-05 1.02597e-05 2.05364e-05
68 1 1.02344 11.5687 11.7433 -7.05333e-06 2.1279e-05 3.90172e-06 2.27545e-05
69 1 1.98394 0.655333 9.59752 7.00938e-06 1.76473e-05 -2.46293e-05 3.10993e-05
70 1 1.01941 11.5696 7.44389 7.09483e-06 -2.54104e-06 -2.14124e-05 2.26998e-05
71 1 1.47783 2.02719 3.19191 2.0742e-06 -7.25887e-06 -9.83094e-06 1.23952e-05
72 1 1.94732 0.545918 5.29961 7.43882e-06 -6.08934e-06 -8.06444e-06 1.2548e-05
73 1 2.99686 1.92234 1.05954 -2.36655e-06 1.44795e-05 1.69847e-05 2.24441e-05
74 1 4.00455 11.1703 9.58365 -1.85234e-05 8.96724e-06 -3.61221e-06 2.08944e-05
75 1 4.98198 0.331509 1.06905 1.17447e-05 2.78952e-06 -2.91908e-06 1.24193e-05
76 1 10.8832 11.6266 9.6133 -1.03396e-05 -7.41466e-06 1.63927e-05 2.0751e-05
77 1 2.52134 11.4045 1.06611 3.72963e-06 1.00555e-06 -2.37124e-05 2.4025e-05
78 1 1.63798 10.2584 9.5953 -1.5535e-05 1.53129e-05 -4.81464e-06 2.23384e-05
79 1 1.96817 4.65051 3.20599 -6.08608e-06 5.90645e-06 1.63161e-05 1.83886e-05
80 1 1.43281 10.0142 5.34308 -6.7958e-06 8.13377e-06 -1.47545e-05 1.81669e-05
81 1 2.96068 9.91773 3.19681 3.95186e-06 2.90575e-06 -1.68839e-06 5.1876e-06
82 1 4.50994 9.81382 1.07964 4.31639e-06 5.16191e-06 -3.01428e-05 3.08847e-05
83 1 3.43688 8.45664 5.29611 1.08027e-05 -6.84911e-06 9.43406e-06 1.58937e-05
84 1 1.52955 6.1426 1.06281 -2.00649e-05 -1.13688e-05 7.47208e-06 2.42422e-05
85 1 0.0450793 10.3518 1.06325 -2.34855e-05 1.5388e-05 1.42314e-05 3.14785e-05
86 1 9.24415 7.72483 11.8817 -2.99726e-05 -1.08354e-05 5.10118e-07 3.18751e-05
87 1 8.83662 5.00234 7.43411 2.72816e-06 -4.99478e-07 3.11844e-07 2.79098e-06
88 1 11.383 6.22066 3.1737 -5.9754e-06 -3.12868e-06 1.8604e-05 1.9789e-05
89 1 10.8385 3.53518 11.7635 1.10341e-05 -1.81568e-05 1.83887e-05 2.80992e-05
90 1 10.9362 3.4698 7.44838 1.00133e-06 -3.09106e-05 2.40134e-05 3.91549e-05
91 1 10.8947 3.59962 3.18473 -2.31485e-05 1.62593e-05 -6.25298e-06 2.8971e-05
92 1 10.3849 0.947451 11.753 -1.01397e-05 4.25697e-06 1.71705e-06 1.11303e-05
93 1 11.3272 2.07645 9.62113 -5.15235e-06 -5.96306e-06 6.17295e-07 7.9048e-06
94 1 3.91032 11.0727 5.31327 5.53501e-06 -3.12354e-06 -1.88671e-05 1.99088e-05
95 1 0.438896 4.7428 5.30953 2.193e-06 3.64413e-06 -5.20954e-06 6.7252e-06
96 1 2.4466 3.22501 9.59209 -2.8699e-05 -1.02598e-05 2.72083e-05 4.08557e-05
97 1 1.47316 2.06695 11.7335 -2.09215e-05 3.07699e-06 -6.57298e-06 2.21446e-05
98 1 6.48552 8.21821 1.06632 9.29876e-06 -1.75375e-05 1.13842e-05 2.2883e-05
99 1 3.92051 3.09633 11.7413 3.26417e-06 3.01143e-06 8.3043e-06 9.41726e-06
100 1 4.8748 4.25645 9.61165 -2.74558e-06 8.95723e-06 2.00755e-05 2.21539e-05
101 1 2.43456 3.1577 5.35285 1.57345e-05 3.23451e-05 1.5825e-05 3.92965e-05
102 1 4.89632 4.21908 5.32563 1.5321e-05 -8.67507e-06 3.30766e-06 1.79145e-05
103 1 3.94423 3.06279 3.21014 -3.51358e-05 1.30717e-05 -2.19075e-05 4.34204e-05
104 1 5.95119 5.56703 1.08297 -7.93453e-06 -4.8652e-06 -2.47182e-06 9.63e-06
105 1 3.46817 0.484323 11.736 2.61582e-05 -3.38255e-05 -9.48325e-07 4.27705e-05
106 1 4.44744 1.64517 9.60784 -6.58943e-06 -3.85609e-06 -8.55298e-06 1.14649e-05
107 1 3.43544 0.511845 7.45477 3.71184e-07 -3.5891e-06 -9.11043e-07 3.72148e-06
108 1 4.47046 1.56566 5.31724 -1.87663e-05 -9.08129e-06 2.99424e-06 2.1062e-05
109 1 3.45581 0.445943 3.18639 -2.9684e-05 1.40704e-05 8.01847e-06 3.38144e-05
110 1 5.45841 2.94717 1.0694 -2.87958e-05 -5.83064e-06 -5.16531e-06 2.98308e-05
111 1 6.44154 0.023611 9.60999 2.93846e-05 -6.14875e-06 -2.81124e-05 4.11287e-05
112 1 3.04164 9.99178 11.7522 1.62509e-05 -1.39239e-05 -8.42895e-06 2.30003e-05
113 1 3.05275 9.9899 7.44401 -7.02451e-06 2.99888e-05 -2.65641e-05 4.06733e-05
114 1 5.45504 10.9709 3.22213 4.45744e-05 -3.01312e-05 -4.64775e-06 5.40034e-05
115 1 2.03584 8.78534 1.0681 -4.72204e-06 2.18138e-05 -8.32203e-06 2.382e-05
116 1 3.51616 8.54207 9.59903 2.51473e-05 -1.50098e-05 1.93044e-05 3.50762e-05
117 1 2.58168 7.36901 7.41937 -5.84296e-07 -1.44697e-05 -8.97869e-06 1.70391e-05
118 1 5.89242 9.46966 5.33031 -9.39654e-07 1.01702e-05 -8.58411e-06 1.33418e-05
119 1 4.94861 8.33337 3.19159 8.39486e-06 4.08896e-06 -2.08981e-06 9.56873e-06
120 1 6.96713 10.8541 1.07672 -3.10634e-05 2.66063e-06 1.79834e-05 3.59919e-05
121 1 9.9335 10.4086 11.7749 9.97488e-06 -1.73707e-05 3.12033e-06 2.02725e-05
122 1 1.95144 4.72057 7.464 4.21006e-06 -1.97121e-06 -1.57392e-06 4.9079e-06
123 1 0.945641 7.38359 5.26741 2.92685e-05 -3.40342e-06 6.98409e-06 3.02821e-05
124 1 5.38908 6.85174 5.3375 -2.10794e-05 -2.02429e-06 -4.65619e-06 2.16822e-05
125 1 2.4639 7.28569 3.17952 1.26311e-05 1.00243e-05 1.39351e-05 2.13124e-05
126 1 4.00998 7.18526 1.06221 1.91862e-05 -7.12689e-06 9.71212e-06 2.26546e-05
127 1 10.3763 0.944837 7.45767 -1.95679e-05 -2.57945e-07 -2.979e-05 3.56429e-05
128 1 9.44595 11.8999 1.06306 -1.55513e-05 1.62216e-05 -1.47792e-05 2.68962e-05
