ITEM: TIMESTEP
0
ITEM: NUMBER OF ATOMS
143
ITEM: BOX BOUNDS pp pp pp
0.0000000000000000e+00 1.1400361000000000e+01
0.0000000000000000e+00 1.2098903999999999e+01
0.0000000000000000e+00 1.2816801000000000e+01
ITEM: ATOMS id type x y z fx fy fz v_fmag
1 1 4.26181 0.141519 4.36652 -1.65994e-05 -5.10073e-05 -1.20491e-05 5.49769e-05
2 1 10.8387 2.19031 4.77559 3.80676e-05 -2.43075e-05 -8.38894e-06 4.59388e-05
3 1 11.2093 0.280035 8.99595 1.1682e-05 8.76225e-06 -7.10918e-06 1.62415e-05
4 1 9.29047 3.22257 12.607 3.12382e-05 3.1898e-05 1.60014e-05 4.74273e-05
5 1 5.57221 1.00909 1.79165 -1.00971e-05 -5.4964e-05 1.79704e-05 5.8702e-05
6 1 9.13186 3.79574 3.92999 -0.000128074 7.57816e-05 0.000172349 0.000227706
7 1 9.82939 1.11883 7.05434 4.17016e-06 -2.85716e-05 -2.40144e-05 3.75555e-05
8 1 2.19305 9.99211 12.2003 -2.68609e-05 1.81615e-05 -1.5046e-05 3.57454e-05
9 1 11.3317 2.80941 8.33758 -2.76189e-05 -1.29698e-05 1.95249e-05 3.62248e-05
10 1 9.50706 5.66457 11.9171 1.26929e-05 6.54894e-05 -1.80323e-05 6.91024e-05
11 1 8.25868 4.60346 1.69977 -3.3259e-05 -3.68805e-05 2.19462e-05 5.42952e-05
12 1 8.68186 5.73808 5.06299 -0.000110719 -0.000145776 0.00015909 0.000242526
13 1 9.79448 3.73561 6.44646 -4.03351e-05 -1.63933e-05 6.974e-06 4.40942e-05
14 1 8.95631 4.98502 8.41541 1.29857e-05 -1.32153e-05 1.17071e-06 1.85645e-05
15 1 10.4648 4.16131 10.2161 -1.39647e-05 2.88693e-05 -5.32287e-06 3.25082e-05
16 1 7.57857 1.62522 11.4353 1.86084e-05 -2.27101e-05 -4.58386e-05 5.44352e-05
17 1 8.58716 7.02532 0.932029 -5.5215e-06 9.50688e-06 -1.54754e-05 1.8983e-05
18 1 3.11106 12.0374 10.8909 2.44538e-05 3.25876e-05 -1.47255e-05 4.33218e-05
19 1 5.83428 11.306 6.17348 -9.2389e-06 1.45645e-05 3.57101e-05 3.96572e-05
20 1 6.07564 6.90536 1.19434 -3.02196e-05 3.01274e-06 3.91535e-05 4.95509e-05
21 1 4.54908 5.98956 4.20701 -2.24663e-05 2.57988e-05 -2.01223e-05 3.9689e-05
22 1 6.15725 7.55193 5.47238 -1.02617e-05 -3.283e-06 -5.07991e-06 1.19116e-05
23 1 4.91544 5.60509 6.78824 -4.34394e-05 -2.09813e-06 -2.21093e-05 4.87873e-05
24 1 6.58771 7.46264 8.21517 -3.43483e-05 8.53312e-05 4.10235e-05 0.000100718
25 1 5.47913 6.29195 10.5678 1.239e-05 4.19512e-06 5.49409e-06 1.41879e-05
26 1 4.09453 10.5994 9.06726 2.6813e-05 6.85747e-06 3.28972e-05 4.29905e-05
27 1 6.04976 9.45901 0.731701 -6.4443e-06 -1.24989e-05 -1.01403e-05 1.73372e-05
28 1 6.80135 9.81406 4.46657 1.83218e-05 -2.24311e-05 -3.51627e-05 4.5555e-05
29 1 5.05863 9.14335 7.23474 -1.55844e-05 6.78412e-06 2.63923e-05 3.13919e-05
30 1 5.6502 8.7922 9.93824 1.47684e-05 -3.17107e-05 -1.29662e-05 3.73068e-05
31 1 4.5205 7.78595 12.2549 -1.62637e-05 -9.95559e-06 -2.7032e-05 3.3081e-05
32 1 6.59425 11.7546 12.6703 -1.6144e-05 3.68051e-05 -7.1182e-05 8.17442e-05
33 1 5.20702 10.7199 2.66655 -3.65336e-05 9.35896e-06 -4.71758e-06 3.80073e-05
34 1 5.23451 8.1848 3.12848 -1.27972e-05 9.73495e-06 -1.74154e-05 2.37031e-05
35 1 7.98944 3.95935 10.5954 -4.12872e-05 1.1877e-05 -2.10122e-05 4.78248e-05
36 1 7.1128 6.30676 3.34854 -6.62287e-05 1.3602e-05 -3.29805e-05 7.52261e-05
37 1 7.29886 5.75828 6.82014 0.000189508 -4.25554e-05 -0.000211576 0.000287209
38 1 11.0392 7.30645 0.440201 -3.06556e-05 7.64508e-06 -7.81615e-06 3.2547e-05
39 1 9.95535 6.21498 2.92779 3.94143e-05 -8.7883e-06 -2.76236e-05 4.89263e-05
40 1 9.59064 7.16952 7.0984 -3.58081e-05 -7.26504e-06 -1.16676e-05 3.83554e-05
41 1 10.4108 6.73776 9.61809 -2.25999e-06 1.22101e-05 -5.36566e-07 1.2429e-05
42 1 10.1078 8.72804 2.20797 9.92762e-07 7.57095e-07 2.16433e-05 2.16793e-05
43 1 10.5351 9.34652 5.91935 1.31032e-05 -1.76849e-05 -2.07612e-05 3.02569e-05
44 1 11.0061 5.77122 5.35001 -2.20742e-05 -1.45709e-05 6.92575e-05 7.41362e-05
45 1 10.2524 10.3346 10.283 2.55618e-05 1.70593e-05 -2.3073e-05 3.8429e-05
46 1 0.259866 10.3814 3.4882 3.07012e-05 -5.56527e-06 1.11188e-05 3.31234e-05
47 1 10.7341 11.8116 5.2553 -8.14099e-06 2.8558e-05 9.01506e-06 3.10339e-05
48 1 9.56358 10.7567 7.80977 4.04796e-05 1.03388e-05 -9.01348e-06 4.27403e-05
49 1 8.54806 0.0924187 9.63571 3.57772e-05 -1.30453e-05 -4.28804e-05 5.7349e-05
50 1 9.24531 11.8172 12.1019 4.30023e-05 3.42471e-06 5.70521e-06 4.35141e-05
51 1 11.0194 1.23136 0.410464 -2.48059e-05 4.40535e-05 5.04616e-05 7.14312e-05
52 1 9.48056 8.1837 11.4265 -7.70596e-06 2.3962e-05 -1.07399e-05 2.73662e-05
53 1 8.89769 8.03347 4.54397 2.44939e-05 0.000142107 -2.02074e-05 0.000145611
54 1 10.9304 4.83085 1.04486 -3.51313e-05 2.54587e-05 -1.4464e-06 4.34101e-05
55 1 9.1799 0.750705 3.40424 -1.08175e-05 -3.64087e-06 -8.19159e-07 1.14432e-05
56 1 8.64882 8.70575 9.06056 -3.00532e-05 2.52212e-05 -7.40278e-06 3.99263e-05
57 1 7.94069 6.48722 10.098 2.08926e-06 1.1738e-05 -1.61134e-05 2.00447e-05
58 1 8.55316 9.63678 0.365702 -1.34357e-05 -2.05759e-05 1.39426e-05 2.82539e-05
59 1 7.60981 8.64581 2.48964 -1.57557e-05 2.45009e-05 -1.74928e-06 2.91821e-05
60 1 9.18487 10.3553 3.81612 -5.44138e-05 -4.43501e-05 -1.5045e-05 7.17923e-05
61 1 7.88392 9.07335 6.64209 -1.61967e-05 1.96123e-05 1.19153e-05 2.80882e-05
62 1 10.2537 1.69677 10.8323 4.28533e-05 2.38425e-05 -1.2298e-06 4.90549e-05
63 1 7.58344 10.1915 10.8956 -5.27745e-05 1.78721e-05 -8.30535e-06 5.63342e-05
64 1 8.28442 1.27262 1.07997 4.92005e-05 -7.85865e-06 -2.4996e-05 5.57427e-05
65 1 7.589 11.1693 2.06067 -1.37844e-05 2.52951e-05 3.97419e-05 4.90843e-05
66 1 8.31412 11.4683 5.77961 -2.60888e-05 -1.12039e-05 2.98242e-05 4.11781e-05
67 1 6.85645 10.552 8.43168 -3.19065e-05 -7.53212e-06 2.48465e-05 4.11352e-05
68 1 5.87542 12.0903 10.226 2.78956e-05 1.684e-05 2.61022e-05 4.17501e-05
69 1 4.73504 10.2681 11.6086 -4.91756e-06 2.72746e-05 -1.40088e-05 3.10537e-05
70 1 7.03758 7.91798 11.8844 3.50388e-05 -2.28838e-05 -3.82151e-06 4.20237e-05
71 1 1.79405 12.0183 4.81851 1.03532e-05 -8.90262e-06 2.60897e-05 2.94468e-05
72 1 6.37507 4.80535 8.86265 7.53053e-06 -1.0066e-05 5.6514e-06 1.3783e-05
73 1 6.3666 4.24626 4.86782 3.6717e-06 1.23365e-05 -3.47205e-05 3.70295e-05
74 1 1.17919 8.92895 1.74574 3.21238e-06 -1.31334e-06 3.87387e-05 3.88939e-05
75 1 0.177902 7.88536 4.11443 5.82742e-06 -5.35321e-06 1.19487e-05 1.43313e-05
76 1 1.75833 9.49975 5.36095 -2.7637e-05 -1.97027e-05 -3.83269e-05 5.11952e-05
77 1 11.2099 8.84423 8.42066 1.71673e-05 -5.23744e-06 -4.38428e-05 4.73745e-05
78 1 0.566431 8.38691 10.9218 3.03324e-05 6.52766e-06 -3.08743e-05 4.37708e-05
79 1 1.26437 11.454 1.15418 -3.26315e-05 -7.22132e-06 3.98848e-06 3.36581e-05
80 1 0.56217 5.85833 11.4819 -2.45451e-05 -1.0023e-05 -1.38444e-05 2.99097e-05
81 1 10.1045 11.3283 1.65028 2.18659e-05 1.39619e-05 -1.26915e-05 2.88813e-05
82 1 6.73975 0.285958 3.99221 6.53004e-06 -3.10371e-05 -5.4032e-06 3.21735e-05
83 1 4.90227 0.624515 7.94686 3.42027e-05 1.5776e-06 -2.06523e-05 3.99854e-05
84 1 3.92089 2.96394 1.0868 -1.77818e-05 2.25726e-05 2.06521e-05 3.53868e-05
85 1 0.335532 0.802871 2.92929 -3.745e-05 -1.39703e-05 -9.37237e-07 3.99819e-05
86 1 4.60524 2.57748 3.59583 -4.14676e-05 2.61481e-05 -5.46383e-05 7.34073e-05
87 1 3.33202 1.53449 6.16795 -4.91006e-06 1.47577e-05 2.68511e-05 3.10303e-05
88 1 0.762861 10.9028 7.18441 2.82789e-05 -1.9002e-05 -1.82771e-05 3.8663e-05
89 1 6.45493 2.25997 9.2801 3.30749e-05 7.51135e-07 -2.44917e-05 4.11626e-05
90 1 1.51698 6.95493 9.10195 -8.08023e-06 -3.73151e-05 1.21983e-05 4.00812e-05
91 1 0.896234 7.4529 6.60875 -1.28423e-05 -1.43146e-05 3.15826e-05 3.69769e-05
92 1 2.38543 0.415258 8.47109 3.27122e-05 -2.37309e-05 -1.68618e-05 4.379e-05
93 1 1.2928 2.85057 1.68393 1.31994e-05 4.36461e-05 -2.01385e-05 4.98474e-05
94 1 10.1589 2.69135 2.12021 3.18164e-05 -5.96118e-05 -0.00010784 0.00012726
95 1 1.96676 2.39503 4.19921 -1.25129e-05 8.66714e-06 -4.58527e-05 4.83131e-05
96 1 0.8917 1.29737 6.64554 2.43656e-05 -2.43071e-05 -4.32091e-05 5.52408e-05
97 1 3.97871 2.04163 9.75343 -2.6299e-05 -1.49744e-05 -1.73333e-05 3.48757e-05
98 1 11.3797 5.31544 7.81705 1.89624e-05 1.5756e-05 1.6448e-05 2.96372e-05
99 1 0.508428 3.32905 12.0889 2.43156e-05 4.67132e-06 -1.79605e-05 3.05884e-05
100 1 0.303786 4.2718 3.50268 -2.99884e-06 -7.22968e-06 3.10338e-05 3.20056e-05
101 1 1.00089 3.79269 6.03512 -1.43153e-05 -7.84488e-06 2.90582e-05 3.33294e-05
102 1 2.41928 2.95846 7.95711 2.2763e-05 3.20472e-05 3.89171e-05 5.53147e-05
103 1 1.4791 4.43489 9.68937 3.87116e-05 -3.20257e-07 2.08885e-06 3.87692e-05
104 1 3.03314 3.51 11.5194 4.03851e-05 1.00129e-05 5.40196e-05 6.8186e-05
105 1 1.14198 6.39497 2.33321 3.73192e-06 2.97456e-05 3.55265e-05 4.6485e-05
106 1 2.10276 4.95554 0.510513 -6.15791e-06 5.84555e-06 -4.5252e-05 4.60417e-05
107 1 7.35657 3.32726 7.08843 2.50467e-05 -3.62377e-05 -1.45248e-05 4.6384e-05
108 1 2.22156 1.38841 12.6998 -1.44513e-06 5.62643e-06 1.96622e-06 6.13279e-06
109 1 2.91863 4.41529 2.92635 1.19512e-05 2.97156e-05 -6.38108e-06 3.26583e-05
110 1 3.32369 11.105 6.64294 -2.89473e-06 1.62726e-05 1.90053e-05 2.51868e-05
111 1 1.45363 10.4386 9.65608 1.62282e-05 2.82573e-06 3.39643e-05 3.7748e-05
112 1 0.541538 11.8922 11.4599 1.57156e-05 7.06265e-06 8.21825e-06 1.90892e-05
113 1 11.042 9.84858 12.7176 -3.81866e-06 1.25011e-05 1.58637e-05 2.05552e-05
114 1 8.24497 1.93287 5.30466 -6.67479e-06 -2.92994e-05 5.64207e-05 6.39242e-05
115 1 7.36837 0.797896 7.5216 -3.80423e-06 2.14372e-05 -2.08404e-05 3.01388e-05
116 1 2.72557 10.5863 3.0502 -2.14396e-05 -4.37604e-05 1.29986e-05 5.04341e-05
117 1 6.5312 3.04885 0.493443 -3.61064e-06 -2.1555e-05 1.37013e-06 2.18982e-05
118 1 7.15607 2.60539 2.99749 -1.32746e-05 -5.92694e-06 -2.4476e-06 1.47423e-05
119 1 5.78398 1.80883 5.68716 2.90402e-05 1.27298e-05 2.08677e-05 3.79584e-05
120 1 8.91964 2.47587 8.86772 1.5773e-05 -2.31659e-05 1.74122e-05 3.29944e-05
121 1 4.85756 1.44524 12.0917 -5.62033e-07 -4.28842e-05 -5.33422e-06 4.32183e-05
122 1 7.07098 5.35713 12.3853 -3.72186e-06 -1.59233e-05 -1.30488e-06 1.64045e-05
123 1 5.56032 4.59261 2.29735 1.11569e-05 1.7751e-05 -3.38727e-05 3.98364e-05
124 1 2.91837 0.976866 2.39582 -1.19272e-05 1.15648e-05 3.75771e-05 4.10858e-05
125 1 4.58695 5.1794 12.7932 3.77045e-05 -3.70988e-05 3.05148e-05 6.10664e-05
126 1 3.8503 11.5851 0.6532 1.34117e-05 8.2871e-06 -2.43761e-05 2.903e-05
127 1 3.0888 8.59291 10.357 -4.01468e-06 1.00842e-05 3.14653e-05 3.32848e-05
128 1 3.57156 3.95834 5.4582 2.61621e-05 -2.93448e-05 1.07317e-05 4.07522e-05
129 1 4.87697 3.17394 7.50352 7.29093e-08 1.12081e-06 -1.92995e-05 1.93321e-05
130 1 3.92755 4.62716 9.2462 -1.46613e-05 9.73911e-06 1.80524e-05 2.52129e-05
131 1 5.52437 3.69118 11.0627 7.31933e-05 -2.27381e-06 -8.6979e-06 7.37433e-05
132 1 3.6696 6.56393 1.81413 2.59951e-05 -2.54468e-06 -3.64366e-06 2.63723e-05
133 1 2.00385 5.89416 4.75842 -1.46567e-05 -3.00712e-05 -8.18963e-06 3.44408e-05
134 1 2.09827 7.4838 12.7999 -8.71562e-06 4.31035e-05 -1.32449e-05 4.59271e-05
135 1 3.47974 7.54393 6.01451 1.85597e-05 -3.47559e-05 1.16846e-05 4.1097e-05
136 1 4.06225 7.12168 8.59015 3.17116e-05 -7.59677e-07 2.12745e-05 3.81943e-05
137 1 3.00864 6.08724 10.9902 -2.02665e-05 -2.66888e-05 1.55177e-05 3.69299e-05
138 1 3.64849 9.10229 1.31823 -1.55684e-05 3.58795e-06 -9.64669e-06 1.8663e-05
139 1 2.73068 8.03222 3.58594 1.21555e-05 -9.49731e-06 2.81211e-06 1.568e-05
140 1 4.29254 9.66697 4.86398 6.64176e-06 -1.92583e-05 -6.41618e-06 2.1358e-05
141 1 2.46542 9.01499 7.84197 -1.9108e-05 -1.64828e-05 2.55315e-05 3.58978e-05
142 1 2.46383 5.46841 7.29349 -1.94666e-05 -1.51546e-05 8.49544e-06 2.60919e-05
143 1 1.41844 1.90065 10.242 2.04604e-05 1.12706e-05 2.23149e-05 3.2305e-05
