ITEM: TIMESTEP
0
ITEM: NUMBER OF ATOMS
127
ITEM: BOX BOUNDS pp pp pp
0.0000000000000000e+00 1.1464695000000001e+01
0.0000000000000000e+00 1.1317634999999999e+01
0.0000000000000000e+00 1.1648808000000001e+01
ITEM: ATOMS id type x y z fx fy fz v_fmag
1 1 1.60261 0.025705 3.30833 -1.92193e-05 2.26907e-05 1.97405e-06 2.98018e-05
2 1 9.00811 9.39174 8.23953 1.63617e-06 2.62573e-05 -2.01309e-05 3.31267e-05
3 1 3.95713 7.64078 7.08541 -6.77021e-06 -2.73901e-05 2.6073e-05 3.84169e-05
4 1 4.96341 8.45707 4.89941 3.61024e-06 2.14741e-05 -5.35366e-05 5.77956e-05
5 1 7.20321 10.0855 0.64116 2.0836e-05 -2.02473e-05 -2.83869e-05 4.0619e-05
6 1 3.13823 4.28418 9.96277 1.55697e-06 -4.4412e-07 2.44301e-05 2.44837e-05
7 1 5.5093 6.94098 8.89171 2.7771e-05 -3.0868e-06 1.46478e-05 3.15486e-05
8 1 6.12183 6.77777 3.33115 -2.14372e-05 1.14108e-05 1.49672e-05 2.85268e-05
9 1 7.10532 7.63025 1.12202 -1.31853e-05 -2.00984e-05 -2.52577e-05 3.48676e-05
10 1 6.64704 5.26923 7.31319 1.95865e-05 1.51997e-05 -6.14573e-05 6.62696e-05
11 1 7.62393 6.07447 5.0967 -1.65407e-06 1.60754e-06 1.30525e-06 2.65025e-06
12 1 5.18516 4.44371 3.53442 -5.18143e-07 -1.99114e-05 -2.84146e-05 3.47004e-05
13 1 6.07867 5.32663 1.27433 1.452e-05 -1.27738e-05 -3.99238e-05 4.43611e-05
14 1 7.1282 1.24018 0.0926351 -2.25387e-05 -8.26278e-06 1.47126e-06 2.40506e-05
15 1 5.61469 8.37404 10.9834 -3.22131e-05 -1.0432e-05 -4.07435e-05 5.29769e-05
16 1 8.13814 4.5623 9.07833 1.22799e-05 -2.34239e-05 1.63895e-05 3.11142e-05
17 1 6.81856 3.71677 5.34473 5.5418e-05 -8.35746e-06 1.87748e-05 5.91058e-05
18 1 7.14452 3.70263 11.2885 1.25336e-05 -4.15166e-05 -2.56069e-05 5.0363e-05
19 1 10.2616 2.30062 8.99412 -1.70163e-05 6.86108e-06 1.90867e-05 2.64751e-05
20 1 10.3349 2.18332 3.18228 7.70274e-06 6.7096e-06 -2.78033e-05 2.96205e-05
21 1 8.70153 2.95313 1.41592 1.5992e-05 -2.79971e-05 2.11086e-06 3.23115e-05
22 1 8.83531 0.476184 1.90527 -3.0429e-05 -3.70783e-05 5.55169e-06 4.8286e-05
23 1 8.05039 10.9697 10.0123 5.27474e-06 -2.42653e-06 9.95345e-06 1.15231e-05
24 1 8.82188 0.529281 7.69484 -2.16723e-05 4.83885e-06 -2.73734e-05 3.52477e-05
25 1 7.40146 10.1084 6.44429 -2.16911e-06 -1.00153e-06 5.74076e-07 2.45716e-06
26 1 8.14259 10.9482 4.12063 -1.00626e-05 1.80308e-05 -1.59176e-05 2.60717e-05
27 1 3.44461 9.1218 3.13686 3.60254e-05 -1.7456e-05 2.3888e-05 4.66173e-05
28 1 2.05811 5.88853 11.5848 7.31411e-06 4.26622e-07 -1.90252e-05 2.03871e-05
29 1 6.55518 9.24639 8.72583 -1.78439e-06 2.53178e-05 -2.95001e-05 3.89157e-05
30 1 6.09084 2.85577 7.63179 3.38299e-06 1.52197e-06 -1.5744e-05 1.61752e-05
31 1 1.45934 7.46037 7.48428 3.46489e-05 4.34054e-06 1.63816e-06 3.49581e-05
32 1 6.01951 9.27108 2.72139 2.67722e-05 -5.28487e-05 7.77212e-05 9.77257e-05
33 1 9.84024 10.2129 5.93167 -1.65878e-05 2.76137e-05 -6.9955e-06 3.29638e-05
34 1 11.3372 8.12864 5.62251 -2.90685e-05 1.83181e-05 -6.99615e-06 3.50639e-05
35 1 7.03892 6.20909 10.6863 -2.6725e-05 1.393e-05 3.78582e-05 4.83891e-05
36 1 10.4896 7.23255 7.9811 6.88736e-06 -3.02662e-05 4.08434e-06 3.13075e-05
37 1 10.119 4.71625 2.60741 -1.7334e-05 1.56839e-05 3.79973e-05 4.46122e-05
38 1 10.9375 3.1805 6.69061 -5.12277e-06 1.03442e-05 2.74843e-06 1.18659e-05
39 1 0.00454011 9.56733 7.76794 -8.14995e-07 1.91299e-05 1.61622e-05 2.50566e-05
40 1 9.56544 7.80966 0.682036 -2.40148e-05 -2.39829e-05 -2.53986e-06 3.40344e-05
41 1 8.09442 8.51791 10.5159 -1.35458e-05 -6.69161e-06 -1.64068e-05 2.23036e-05
42 1 10.5552 8.69001 10.0371 2.17738e-05 -2.71472e-05 4.31446e-06 3.50668e-05
43 1 6.47711 7.77528 6.67154 4.06733e-05 -2.66763e-05 5.40632e-05 7.27239e-05
44 1 7.52348 8.59179 4.44842 -9.34221e-06 2.1593e-05 -7.07661e-05 7.45747e-05
45 1 9.69412 10.2168 0.209273 -4.56748e-06 -1.23857e-05 2.48061e-05 2.81e-05
46 1 4.54345 6.06826 11.1265 2.43376e-05 1.41343e-05 2.18059e-05 3.56033e-05
47 1 0.859816 10.446 5.54043 -1.78912e-05 -5.47972e-06 2.28576e-05 2.95397e-05
48 1 8.00857 7.06562 8.45156 7.83861e-06 9.71358e-06 -1.4922e-05 1.94542e-05
49 1 11.068 7.06638 2.43537 -1.76277e-06 3.69683e-06 4.48721e-05 4.50586e-05
50 1 9.14074 5.38272 6.85321 3.13892e-05 3.57824e-05 2.7894e-05 5.51701e-05
51 1 10.1017 6.19774 4.62783 1.74774e-05 1.18066e-05 6.65061e-07 2.11021e-05
52 1 7.65848 4.61104 3.07315 3.33676e-05 -1.12452e-05 2.93752e-05 4.58557e-05
53 1 8.56531 5.48216 0.840508 1.98909e-05 -1.70264e-05 -6.77019e-06 2.70441e-05
54 1 9.58158 1.37053 11.2996 7.76715e-06 -9.28561e-06 -1.50094e-06 1.21985e-05
55 1 10.635 4.74687 8.63519 -1.15263e-06 -2.53624e-05 -3.47928e-05 4.30711e-05
56 1 8.51868 2.98145 7.15911 -2.59348e-05 -3.71123e-06 1.09447e-05 2.83931e-05
57 1 9.26772 3.83371 4.86619 -3.19029e-05 -4.65884e-06 4.12181e-05 5.233e-05
58 1 9.63349 3.85167 10.8595 -6.86878e-06 -2.8176e-05 -3.50253e-05 4.54735e-05
59 1 11.3184 0.576091 1.46505 -2.96859e-05 3.74977e-05 -3.07077e-05 5.68357e-05
60 1 10.4557 11.1601 9.48634 1.18625e-05 -2.1129e-05 6.89526e-06 2.51933e-05
61 1 11.2508 0.717049 7.23252 -6.7892e-06 -3.10365e-05 -2.99969e-05 4.36941e-05
62 1 8.6206 6.98462 2.89908 -8.30823e-06 -1.81714e-05 -2.51412e-06 2.01382e-05
63 1 8.95531 7.87993 6.22233 1.86971e-05 1.79157e-06 3.59539e-05 4.05644e-05
64 1 2.3809 8.31955 5.26272 3.33904e-05 5.56877e-05 1.50753e-05 6.66581e-05
65 1 0.54156 6.58199 9.79665 1.80187e-05 -1.95913e-05 -2.61173e-06 2.67454e-05
66 1 1.123 4.95002 2.16757 5.53527e-06 2.13794e-05 2.48075e-05 3.32134e-05
67 1 2.95939 1.8292 10.3515 -3.20456e-07 4.99883e-06 -5.4795e-07 5.03897e-06
68 1 1.2108 2.52346 8.52225 2.19964e-05 3.80244e-05 9.1539e-06 4.4872e-05
69 1 1.90894 3.39962 6.24108 -1.92567e-06 -1.40363e-05 1.95855e-05 2.41727e-05
70 1 2.18857 3.37628 0.528488 -3.74391e-05 3.18113e-05 -8.69355e-06 4.98921e-05
71 1 5.40423 1.98406 9.91214 1.10006e-05 7.25611e-06 -2.21139e-05 2.57427e-05
72 1 5.42635 1.96668 4.11013 -5.61533e-06 1.07235e-05 -1.63188e-05 2.03182e-05
73 1 3.7775 2.66673 2.31231 -4.58371e-06 -1.5526e-05 -4.48377e-06 1.67979e-05
74 1 2.26302 0.925621 0.990007 6.01019e-06 -1.8983e-05 2.86084e-05 3.48557e-05
75 1 7.1328 1.2438 5.8947 -9.42867e-06 2.95195e-05 1.27841e-05 3.35221e-05
76 1 6.39003 0.399007 2.35467 1.7063e-05 4.37603e-06 2.26968e-05 2.87305e-05
77 1 3.05474 10.6912 10.8163 3.67896e-05 5.3202e-06 -4.13924e-06 3.7402e-05
78 1 3.93222 0.248039 8.61422 -7.10683e-06 -2.14978e-05 -2.65896e-05 3.49238e-05
79 1 0.249222 4.04974 4.41331 5.53306e-06 1.59021e-05 -6.79397e-06 1.81563e-05
80 1 2.49361 9.77715 7.36023 -1.124e-05 -1.37247e-05 -4.12021e-06 1.82121e-05
81 1 0.560781 8.04384 0.251935 1.03917e-05 7.38095e-05 -1.41072e-05 7.58607e-05
82 1 0.162096 5.59294 6.39591 -3.51997e-05 5.31248e-06 5.10363e-06 3.59623e-05
83 1 0.65623 4.06845 10.4117 3.12229e-05 2.71843e-05 4.49755e-06 4.16423e-05
84 1 11.0453 5.65546 0.378955 1.27503e-06 2.84174e-05 2.00481e-05 3.48009e-05
85 1 0.535868 1.60534 10.8144 1.24581e-05 9.59045e-06 -3.03933e-05 3.42189e-05
86 1 2.98686 1.80064 4.56296 -5.6057e-05 5.78438e-05 -1.84068e-06 8.0571e-05
87 1 1.32145 2.46107 2.75563 8.5408e-07 6.89168e-06 1.23574e-05 1.4175e-05
88 1 11.1805 3.10233 0.975533 -2.11073e-05 2.19552e-05 8.14007e-06 3.15247e-05
89 1 4.6937 1.11283 6.36963 2.22833e-06 -5.05876e-06 4.82501e-06 7.33739e-06
90 1 3.99741 0.211135 2.82553 -3.53452e-05 -9.31612e-06 -1.23802e-06 3.65733e-05
91 1 1.45359 0.0609326 9.01923 -3.28531e-05 -1.45341e-05 2.66658e-05 4.47396e-05
92 1 0.530671 1.57364 4.98885 -1.50937e-05 2.63217e-06 -3.49837e-05 3.81917e-05
93 1 2.24145 0.937759 6.80102 7.75248e-06 -7.4825e-06 -2.20174e-05 2.45123e-05
94 1 3.31096 10.6548 5.11903 9.44579e-06 -7.64837e-06 2.59423e-05 2.86482e-05
95 1 4.55634 9.97515 0.95238 -2.49248e-05 2.54772e-05 -2.01254e-05 4.09312e-05
96 1 2.65568 5.79201 5.96948 -1.2958e-07 -1.57119e-05 2.54794e-05 2.99346e-05
97 1 2.10683 7.30296 1.99986 2.08879e-05 -3.59781e-05 5.55101e-05 6.93693e-05
98 1 3.01327 6.77927 9.31748 -5.22034e-06 -1.30903e-05 -4.14107e-05 4.3743e-05
99 1 3.63432 6.62342 3.77039 -4.37018e-05 3.69547e-06 -3.7098e-05 5.74435e-05
100 1 4.60428 7.48926 1.55399 3.11117e-05 -2.72006e-05 -1.18295e-05 4.29854e-05
101 1 4.14999 5.13798 7.7508 -3.72689e-05 -4.15024e-06 -4.49819e-05 5.85625e-05
102 1 5.14616 5.95117 5.54399 6.28484e-05 -4.13193e-05 3.70488e-05 8.38441e-05
103 1 2.71497 4.26898 3.97638 1.03911e-05 4.05218e-06 -2.33835e-05 2.59072e-05
104 1 3.60342 5.15947 1.72752 -3.69182e-06 4.64988e-05 4.04501e-05 6.17412e-05
105 1 5.63348 4.43637 9.52214 1.65306e-05 -2.36938e-05 2.45127e-05 3.78884e-05
106 1 3.64693 2.71296 8.07821 -9.04068e-06 -1.79546e-05 -5.45114e-06 2.08283e-05
107 1 4.36453 3.57869 5.8031 8.43326e-06 2.52922e-05 -4.64042e-06 2.70619e-05
108 1 4.65879 3.55991 0.0790193 1.7808e-06 -1.00631e-06 -2.10344e-05 2.11336e-05
109 1 7.84761 2.11256 9.46722 -8.83616e-06 -1.37289e-05 -1.76794e-05 2.4065e-05
110 1 7.87173 2.09981 3.63989 2.01447e-06 2.53647e-05 5.70188e-06 2.60757e-05
111 1 1.65286 4.9648 8.18546 1.57451e-05 -5.72948e-05 1.65429e-05 6.16787e-05
112 1 6.23488 2.84214 1.86023 -2.07253e-05 -2.95848e-05 -9.81998e-06 3.7433e-05
113 1 9.56682 1.34864 5.41558 7.11017e-06 3.56743e-06 5.79336e-06 9.84094e-06
114 1 10.6048 10.9739 3.67475 -1.89708e-05 -9.8053e-06 -1.99546e-06 2.1448e-05
115 1 5.58203 10.839 10.4422 -5.06232e-06 1.59976e-05 -4.48998e-05 4.79327e-05
116 1 6.39148 0.395418 8.1799 1.29079e-05 -1.12186e-05 -1.56654e-05 2.31922e-05
117 1 4.96031 9.95869 6.928 1.52053e-05 2.31479e-05 -7.37081e-06 2.86593e-05
118 1 5.72988 10.8273 4.65012 -3.1737e-05 -1.03004e-05 -8.20676e-06 3.43611e-05
119 1 1.99538 9.81344 1.36912 -2.47933e-05 3.26116e-05 -1.23224e-05 4.27793e-05
120 1 3.08719 8.20483 11.4117 -4.50673e-05 7.71157e-06 -1.51648e-05 4.81716e-05
121 1 4.07868 9.08653 9.17759 -3.81276e-06 1.10022e-05 2.87104e-05 3.09818e-05
122 1 0.767702 8.99413 3.4079 1.26166e-06 1.19387e-05 2.88428e-05 3.12415e-05
123 1 0.586044 10.4777 11.2076 4.07949e-05 -5.85325e-06 3.3397e-05 5.30457e-05
124 1 1.5792 8.88511 9.58467 -1.51998e-06 -6.32278e-06 2.7043e-06 7.04281e-06
125 1 1.13985 6.4285 4.19195 -3.50411e-05 1.0129e-05 1.01365e-05 3.78579e-05
126 1 4.68325 1.10902 0.531627 1.34837e-05 -5.86983e-06 -4.90204e-06 1.55015e-05
127 1 9.52595 6.36889 10.2462 3.06525e-05 1.82212e-06 2.75363e-05 4.1245e-05
