ITEM: TIMESTEP
0
ITEM: NUMBER OF ATOMS
166
ITEM: BOX BOUNDS pp pp pp
0.0000000000000000e+00 1.1400361000000000e+01
0.0000000000000000e+00 1.2098903999999999e+01
0.0000000000000000e+00 1.2816801000000000e+01
ITEM: ATOMS id type x y z fx fy fz v_fmag
1 1 11.3251 11.1985 10.1862 3.09127e-06 -1.39485e-06 1.62595e-05 1.66095e-05
2 1 9.50323 2.02038 0.988696 2.47457e-05 5.67421e-05 6.67949e-05 9.1069e-05
3 1 7.85774 1.61501 2.63282 1.27655e-05 -3.0362e-05 1.14772e-05 3.48789e-05
4 1 8.99653 2.71923 4.4306 -1.07902e-05 -4.52764e-05 3.05496e-05 5.56746e-05
5 1 7.34789 1.74482 5.97623 1.93508e-05 -3.56857e-05 -3.13568e-05 5.12949e-05
6 1 8.43916 2.95108 7.70651 -5.05613e-05 -2.92721e-05 -3.83901e-06 5.85494e-05
7 1 6.76558 1.88446 9.18334 2.02368e-05 1.40568e-05 1.10247e-05 2.69938e-05
8 1 8.82001 2.69086 11.6974 2.11314e-05 4.4421e-05 3.25809e-05 5.90023e-05
9 1 7.53746 0.629877 11.1071 6.03721e-06 -1.65282e-05 2.20342e-05 2.81982e-05
10 1 7.4447 3.91233 0.323463 2.56403e-05 -4.90682e-05 -4.77131e-05 7.30866e-05
11 1 9.29895 5.15066 4.28847 1.03825e-05 -4.86907e-05 -5.40012e-05 7.34487e-05
12 1 7.64065 4.23183 5.82865 -5.17593e-05 -1.38985e-05 -5.40102e-05 7.60875e-05
13 1 9.69393 4.95068 8.38631 2.55705e-05 -3.52097e-05 -2.54525e-05 5.04123e-05
14 1 8.01963 3.88363 9.83201 -7.3821e-07 5.91571e-05 4.84364e-05 7.64604e-05
15 1 7.61633 8.5093 0.386344 -1.3983e-05 -5.46756e-05 -5.83386e-05 8.11686e-05
16 1 8.48718 6.43919 2.45611 3.00258e-05 -1.31723e-05 -2.35639e-05 4.03772e-05
17 1 10.5865 7.07916 4.93281 -1.03781e-05 -3.45844e-05 5.25342e-06 3.64881e-05
18 1 8.14367 3.98052 2.53088 -2.5463e-05 -2.81745e-05 -3.16651e-05 4.94454e-05
19 1 8.13954 0.41803 7.8307 -2.62347e-06 -7.98155e-05 5.06189e-07 7.98602e-05
20 1 8.73783 0.316097 4.58879 3.21359e-05 8.49587e-06 3.37775e-05 4.73901e-05
21 1 8.31303 11.7025 0.35208 -2.24561e-05 4.69566e-05 7.44076e-05 9.08058e-05
22 1 8.14966 7.44072 4.62181 5.51541e-06 -2.13129e-05 -1.69018e-05 2.77549e-05
23 1 6.44029 6.4531 6.11112 -4.60345e-05 -3.77057e-05 -1.22354e-05 6.07504e-05
24 1 5.84621 6.59949 9.36629 5.10569e-06 2.19582e-05 -4.25788e-05 4.81787e-05
25 1 4.18511 5.62578 10.8801 -3.08489e-05 -4.5562e-05 -2.83253e-05 6.1886e-05
26 1 6.44821 10.3271 1.37029 7.29999e-05 -2.181e-05 -7.74628e-05 0.000108652
27 1 4.73537 8.87846 2.2558 -3.09451e-05 9.74677e-05 1.58632e-05 0.000103485
28 1 6.72435 8.94429 5.93265 4.3066e-05 1.29226e-05 -2.63838e-05 5.21323e-05
29 1 5.06946 7.90704 7.50381 -1.03612e-05 -5.82635e-05 6.99402e-06 5.95895e-05
30 1 6.87791 7.7181 11.1885 -1.39513e-05 3.13547e-05 3.76879e-05 5.09719e-05
31 1 5.31515 6.63724 12.6813 -8.46223e-06 -3.69033e-05 6.84348e-05 7.82099e-05
32 1 4.04293 11.0085 1.47219 9.30456e-05 -3.97504e-05 -2.11419e-05 0.000103366
33 1 3.43064 10.3254 3.64916 1.85572e-05 1.75927e-05 -3.15205e-05 4.05883e-05
34 1 7.82468 10.0972 7.85819 -7.10426e-06 1.69636e-05 5.35135e-07 1.83989e-05
35 1 6.15772 9.09086 9.39425 6.04888e-05 -1.95988e-05 9.96163e-06 6.43603e-05
36 1 7.23187 10.1913 11.4468 -7.15008e-06 -8.4383e-05 -8.92069e-06 8.51539e-05
37 1 7.03932 11.3418 5.96637 4.73425e-05 -3.94965e-05 4.03466e-05 7.36826e-05
38 1 6.47003 11.4804 9.38324 -3.42733e-06 1.61633e-06 2.44164e-06 4.50785e-06
39 1 8.90869 6.17808 6.49786 -8.20607e-06 -4.65425e-05 9.36244e-06 4.81788e-05
40 1 8.3047 6.40144 9.75944 -9.70944e-06 -5.32504e-05 -2.94159e-05 6.1605e-05
41 1 6.66131 5.26458 11.2302 3.7141e-05 -6.99221e-05 -5.22899e-05 9.4883e-05
42 1 10.1902 10.8115 3.06401 -5.08389e-05 2.81385e-05 -5.35727e-05 7.90342e-05
43 1 9.21183 1.66727 9.60414 2.70204e-05 -1.30617e-05 -1.35123e-05 3.29134e-05
44 1 9.78534 4.63022 0.924627 -2.26533e-05 4.86762e-07 2.77362e-05 3.58149e-05
45 1 10.6096 3.46265 2.79091 4.17678e-05 9.33989e-06 4.09827e-06 4.29951e-05
46 1 0.329759 4.79304 4.60264 2.4796e-06 7.02508e-05 2.87668e-05 7.5953e-05
47 1 10.088 3.94128 6.19629 2.79167e-05 5.31744e-06 -2.48606e-05 3.7758e-05
48 1 10.5005 3.74915 10.2615 -7.87884e-06 2.29865e-05 5.32471e-05 5.85296e-05
49 1 9.70671 10.09 11.7881 -4.79039e-05 -3.01084e-05 -7.52756e-06 5.70786e-05
50 1 10.9409 5.93599 2.68966 3.57047e-05 3.64436e-05 3.60231e-05 6.2455e-05
51 1 11.3475 5.90395 6.8519 -4.34127e-05 -5.30829e-05 2.20537e-05 7.20335e-05
52 1 10.7748 6.26932 10.1949 -2.09147e-05 3.07085e-05 -2.00172e-05 4.22034e-05
53 1 9.13786 5.13951 11.579 -2.98982e-05 -2.31388e-05 -4.00892e-05 5.5104e-05
54 1 9.87958 8.33581 3.05854 -1.09966e-05 3.59416e-06 5.55972e-05 5.67881e-05
55 1 10.8839 9.5408 4.90945 2.93158e-05 1.61161e-05 -8.3317e-06 3.44756e-05
56 1 0.233333 8.35272 6.78704 -5.239e-06 1.8363e-05 -1.89572e-05 2.69077e-05
57 1 10.1019 7.19897 0.885569 -3.74909e-05 3.29534e-05 1.76181e-05 5.29329e-05
58 1 10.3005 1.06236 2.95542 6.47497e-06 4.90368e-05 -3.80789e-05 6.24223e-05
59 1 8.47396 9.96373 4.57473 -1.22115e-05 -6.54179e-05 -2.16654e-05 6.99858e-05
60 1 10.8644 2.71823 8.11757 -4.28572e-05 -1.58302e-05 2.84327e-05 5.38122e-05
61 1 3.74397 6.6039 1.6117 -2.33785e-05 1.49544e-05 -2.59372e-05 3.79859e-05
62 1 9.81406 1.47648 6.34351 3.94998e-06 -3.59574e-05 -2.0056e-05 4.13616e-05
63 1 0.596226 1.73455 1.39167 9.55466e-06 4.41312e-05 -2.69516e-05 5.25856e-05
64 1 7.54499 8.84192 2.8026 0.000140088 2.06638e-05 5.14248e-05 0.000150652
65 1 9.20365 8.63877 6.41679 -9.97784e-06 -6.84806e-05 3.42319e-05 7.72074e-05
66 1 7.50981 7.6769 7.89326 -5.12265e-06 -7.37204e-05 3.46807e-05 8.16314e-05
67 1 9.31415 7.64579 11.618 -8.39573e-06 -4.95215e-05 -4.06193e-05 6.45971e-05
68 1 7.75739 6.22111 0.287108 -1.80856e-05 2.17112e-05 5.64174e-05 6.30982e-05
69 1 7.93014 11.3842 2.68927 -2.40647e-05 -2.97861e-05 -6.10259e-07 3.82974e-05
70 1 5.9204 10.313 3.88328 4.01218e-05 -1.15455e-05 3.18866e-05 5.25339e-05
71 1 10.2619 9.88797 8.26917 -2.58753e-05 -2.21741e-06 -2.19632e-06 2.60628e-05
72 1 8.56807 8.8977 9.78606 -8.01936e-05 -2.44248e-05 1.11794e-06 8.38381e-05
73 1 11.0129 8.75149 10.1654 3.0409e-06 -3.7174e-07 -2.42068e-05 2.43999e-05
74 1 9.52343 11.0996 6.39429 1.05236e-05 1.11009e-05 2.38838e-05 2.83622e-05
75 1 8.91952 11.2869 9.8038 -1.30037e-05 -2.5292e-05 5.10283e-05 5.8418e-05
76 1 10.7374 11.6997 0.922929 2.23356e-05 -6.5568e-05 7.58049e-06 6.96815e-05
77 1 11.1697 12.0228 4.8751 -2.93025e-05 4.55984e-05 2.90873e-05 6.15136e-05
78 1 10.5846 0.227508 8.23055 -1.75876e-05 -2.907e-05 5.96023e-05 6.86063e-05
79 1 9.97404 0.562306 11.6744 -1.14974e-06 1.31833e-05 6.11212e-06 1.45767e-05
80 1 11.1921 2.83476 12.313 -2.78948e-05 4.01159e-05 -4.26857e-05 6.48805e-05
81 1 0.0322089 2.35234 4.73616 -2.48569e-05 -1.22182e-05 1.66851e-08 2.76974e-05
82 1 6.23409 7.20908 1.92051 -1.10735e-05 -0.000296029 -8.66492e-05 0.000308648
83 1 4.98243 4.26112 12.7251 -5.43626e-05 -3.05571e-05 -6.05145e-05 8.68967e-05
84 1 5.54826 4.11908 9.47197 6.43828e-06 -6.21724e-05 -2.4368e-05 6.7087e-05
85 1 0.400925 7.7414 12.0857 2.84655e-05 -1.17163e-05 -2.50997e-06 3.08846e-05
86 1 0.110695 9.19476 1.3597 5.65665e-05 -1.17569e-05 3.06511e-05 6.54025e-05
87 1 2.94746 10.5486 7.08809 7.85506e-06 3.25863e-05 -2.31607e-05 4.07429e-05
88 1 1.28032 9.66207 8.63948 2.43242e-05 6.0896e-05 -1.88816e-06 6.56015e-05
89 1 2.33359 10.9394 10.4968 -2.64804e-05 1.64116e-05 -1.77124e-05 3.58368e-05
90 1 2.18344 11.7301 5.20893 4.28863e-05 5.19486e-05 1.14151e-06 6.73736e-05
91 1 1.57573 0.00955697 8.5902 1.77503e-06 -6.46883e-06 8.54694e-06 1.08649e-05
92 1 3.31913 0.0752391 12.3509 -4.94673e-05 -6.47067e-06 -0.000106891 0.00011796
93 1 3.91894 0.580319 3.68658 4.5911e-05 6.92701e-05 2.17249e-05 8.58961e-05
94 1 3.22406 0.910373 7.04697 -2.34471e-05 4.43199e-05 -4.26035e-05 6.57958e-05
95 1 2.59876 1.27508 10.4362 1.09624e-05 -1.96651e-05 9.48131e-06 2.44292e-05
96 1 4.70079 1.88416 0.0359397 3.55122e-05 3.0519e-05 2.71861e-05 5.41443e-05
97 1 3.13285 1.45859 1.74464 -1.7246e-05 4.23945e-06 -4.21613e-05 4.5749e-05
98 1 4.11841 3.04627 3.67755 -2.47745e-05 3.05159e-05 -1.03842e-07 3.93066e-05
99 1 2.45152 2.07717 5.12921 -1.90796e-05 -4.18029e-06 3.69922e-05 4.18322e-05
100 1 3.50364 3.40181 6.94529 -5.57713e-06 1.12672e-05 -5.9593e-05 6.09047e-05
101 1 1.85274 2.47117 8.51995 1.91638e-05 -9.83987e-06 -1.2698e-05 2.50063e-05
102 1 2.05416 8.51595 10.535 3.83312e-06 6.39503e-06 -4.30581e-05 4.36988e-05
103 1 3.87709 3.18073 10.9825 4.78576e-05 1.46282e-05 1.36076e-05 5.18604e-05
104 1 1.87168 9.26919 5.20612 2.83093e-05 4.06936e-05 -1.68148e-05 5.23462e-05
105 1 0.71249 10.1447 12.1414 -3.0005e-05 2.39178e-05 3.12264e-05 4.94717e-05
106 1 0.963853 0.506084 12.0937 3.49137e-05 -1.56897e-05 3.40227e-05 5.12121e-05
107 1 1.41215 0.710056 3.29284 3.22666e-06 4.04326e-06 -2.28063e-05 2.33856e-05
108 1 0.819112 1.18937 6.67871 -2.3496e-05 2.59688e-05 -1.32843e-05 3.74555e-05
109 1 0.204865 1.56447 10.105 -7.99307e-05 3.50968e-05 4.01467e-05 9.60857e-05
110 1 2.29176 2.55635 12.6942 -4.2276e-06 2.27882e-05 4.05779e-05 4.67305e-05
111 1 1.70766 3.15305 3.1688 -4.33187e-05 5.07198e-05 7.30772e-06 6.71e-05
112 1 1.09365 3.64992 6.56304 -8.50208e-06 4.37593e-05 3.90228e-05 5.92447e-05
113 1 1.48071 3.62764 10.7584 2.63347e-05 4.7017e-05 3.9631e-05 6.68934e-05
114 1 0.906904 4.23587 1.279 3.72849e-05 4.80756e-05 1.08774e-06 6.08491e-05
115 1 2.01702 5.64622 3.06057 -2.99878e-05 3.21149e-05 -1.07881e-05 4.5244e-05
116 1 2.35533 5.6486 7.19958 -1.32696e-05 -3.7438e-08 -3.53733e-07 1.32743e-05
117 1 0.729339 4.73684 8.77495 -4.10897e-05 9.5977e-06 -6.5155e-05 7.7625e-05
118 1 0.105826 5.31727 12.2016 1.1653e-05 6.14594e-05 1.48735e-05 6.42983e-05
119 1 9.24986 9.7375 1.24568 2.32669e-05 2.3621e-05 0.000107758 0.000112744
120 1 3.21088 7.77387 3.72779 3.26048e-06 3.94559e-05 1.80406e-05 4.3507e-05
121 1 1.58861 6.80176 5.2668 2.81532e-05 3.15744e-05 6.34166e-05 7.62313e-05
122 1 1.00365 7.20732 8.69009 -3.17599e-05 -4.18289e-06 -1.50332e-05 3.53862e-05
123 1 0.832504 7.94982 3.31419 5.16016e-05 2.19311e-05 1.97002e-05 5.94289e-05
124 1 9.96531 7.43816 8.31506 -4.40082e-06 -1.01307e-05 2.96013e-07 1.10492e-05
125 1 2.60093 5.01548 12.5808 -3.71406e-05 1.50855e-05 1.4212e-05 4.25321e-05
126 1 4.43472 5.56391 3.55738 2.05028e-05 1.94584e-05 -1.08746e-05 3.02862e-05
127 1 3.99696 11.781 8.93576 5.35279e-05 4.43855e-05 -7.0401e-06 6.98918e-05
128 1 5.76223 11.7745 12.5397 -2.12579e-05 4.94945e-05 1.62461e-06 5.3891e-05
129 1 6.30694 0.601621 4.17913 2.6726e-07 2.97093e-05 -4.95958e-06 3.01216e-05
130 1 5.68389 0.651894 7.4467 -2.60352e-05 -1.90454e-05 -1.93862e-05 3.76349e-05
131 1 5.03862 0.904638 10.6776 -1.29934e-05 -2.88618e-05 8.66282e-06 3.28158e-05
132 1 7.1241 1.59903 0.404829 -2.21813e-05 -3.72131e-05 -3.26784e-05 5.42651e-05
133 1 5.69059 0.432872 1.98418 -4.80514e-05 -1.86491e-05 7.35577e-06 5.20656e-05
134 1 6.5269 3.05299 4.08684 1.04729e-05 -5.17239e-05 3.09124e-05 6.11606e-05
135 1 4.88098 1.91685 5.58963 -3.53431e-05 2.70098e-05 1.55375e-05 4.71177e-05
136 1 5.97179 3.18086 7.32953 -2.20909e-05 4.51941e-06 -2.32801e-05 3.24098e-05
137 1 4.28791 2.16167 8.81612 1.13837e-05 1.78446e-05 -3.37434e-05 3.98326e-05
138 1 6.34787 2.82072 11.3148 3.55425e-05 -3.55019e-05 -3.86821e-05 6.34031e-05
139 1 5.96164 5.00127 1.84807 -4.39387e-07 0.000236033 5.46952e-05 0.000242288
140 1 5.68064 2.75569 1.93703 -7.65238e-05 -0.000180654 -3.14462e-05 0.000198698
141 1 6.83496 5.52088 3.95461 6.98186e-06 -6.73555e-05 -6.40335e-05 9.31977e-05
142 1 5.17459 4.42993 5.47218 1.49477e-05 -1.28911e-05 3.52999e-05 4.04437e-05
143 1 7.22733 5.16797 7.98594 -1.12045e-05 4.09447e-05 -4.12735e-05 5.92074e-05
144 1 4.61765 11.5309 5.59682 -1.26471e-05 1.17011e-05 -3.46217e-05 3.86721e-05
145 1 3.44854 4.04184 1.70231 -7.08382e-06 1.02745e-05 -2.82495e-05 3.08833e-05
146 1 4.74717 10.5006 10.8551 1.94011e-05 1.21544e-05 3.77795e-05 4.41749e-05
147 1 5.38668 10.3161 7.48807 -3.08765e-05 5.42789e-05 -3.48143e-05 7.14954e-05
148 1 2.74515 4.57019 5.021 -1.13166e-05 2.68086e-05 8.61182e-06 3.03468e-05
149 1 4.76968 5.4059 7.60343 -9.41942e-06 -2.30135e-05 -3.62868e-05 4.39895e-05
150 1 3.11001 4.4381 9.11601 7.34891e-05 2.47279e-05 -4.64109e-06 7.76766e-05
151 1 5.26027 9.0187 12.7437 -5.1561e-05 -6.76808e-05 2.00294e-05 8.74094e-05
152 1 1.22451 6.74191 1.17271 1.70735e-05 4.54666e-05 2.44037e-05 5.43531e-05
153 1 5.67645 7.70163 4.15663 3.92523e-05 -3.28453e-05 0.000103215 0.000115208
154 1 4.01299 6.64335 5.68458 -2.3622e-05 6.36906e-05 -2.24363e-06 6.79671e-05
155 1 3.39483 6.89826 9.00626 2.37635e-05 -6.13254e-06 3.13276e-05 3.97962e-05
156 1 1.78186 6.07482 10.6259 2.57679e-05 8.1316e-06 4.6845e-05 5.40793e-05
157 1 3.04727 9.77131 12.4377 1.39194e-05 5.60911e-05 -2.57312e-05 6.32618e-05
158 1 2.43045 8.89635 1.69526 3.04512e-05 1.44162e-05 1.65899e-05 3.75543e-05
159 1 4.30577 9.12443 5.54422 1.10411e-05 2.0224e-05 -2.7889e-05 3.61761e-05
160 1 2.64478 8.11797 7.11601 1.72149e-05 5.60936e-05 -1.4184e-05 6.03658e-05
161 1 4.47256 8.04774 10.7874 9.89668e-06 -2.01737e-06 -7.54558e-06 1.26075e-05
162 1 2.90925 7.40068 12.4275 -4.71587e-05 1.92942e-05 6.23049e-05 8.04867e-05
163 1 1.71973 11.4041 1.2484 2.9228e-06 -3.29705e-05 -1.11039e-05 3.49127e-05
164 1 1.08393 10.4145 3.27698 4.54625e-05 2.82874e-06 1.10158e-05 4.68635e-05
165 1 3.69874 9.35685 8.97947 -1.61663e-05 -4.81114e-06 -2.40021e-05 2.93359e-05
166 1 0.538099 10.8119 6.73868 -6.76093e-06 1.89884e-05 -8.3848e-06 2.18306e-05
