ITEM: TIMESTEP
0
ITEM: NUMBER OF ATOMS
155
ITEM: BOX BOUNDS pp pp pp
0.0000000000000000e+00 1.1400361000000000e+01
0.0000000000000000e+00 1.2098903999999999e+01
0.0000000000000000e+00 1.2816801000000000e+01
ITEM: ATOMS id type x y z fx fy fz v_fmag
1 1 1.30847 2.51399 6.9703 2.18441e-05 1.88486e-05 -3.21739e-05 4.32156e-05
2 1 9.05161 3.11457 11.1607 -8.01157e-06 -5.14407e-06 -2.5735e-05 2.74397e-05
3 1 7.67251 2.7756 0.564125 3.48363e-05 -1.32212e-05 -6.96796e-06 3.79067e-05
4 1 6.63374 3.93418 2.48626 4.62313e-06 8.00366e-07 1.69658e-05 1.76026e-05
5 1 5.3938 3.95097 6.72517 1.31194e-05 2.3057e-05 3.48083e-07 2.65305e-05
6 1 6.81574 4.7148 8.72231 -3.95818e-05 -1.20092e-05 -1.15505e-05 4.2946e-05
7 1 6.594 3.58152 11.077 -3.14378e-06 -3.80798e-06 1.32858e-06 5.11363e-06
8 1 9.25538 4.65729 0.211931 2.64787e-05 -4.70643e-05 7.02836e-06 5.4457e-05
9 1 8.26147 5.87505 2.14069 3.73538e-05 -4.11803e-05 -9.63356e-06 5.64263e-05
10 1 5.58787 5.07559 4.40482 -2.76592e-05 1.0651e-05 -1.33719e-05 3.25158e-05
11 1 7.03968 5.83151 6.40142 -1.752e-05 -3.96102e-06 -5.98071e-06 1.89317e-05
12 1 5.78252 5.89597 10.6353 -1.9669e-05 -1.10911e-06 -2.94185e-05 3.54054e-05
13 1 10.6653 4.92619 10.7816 -5.07193e-05 -3.25296e-05 -4.13993e-05 7.31062e-05
14 1 9.90607 7.72733 1.74669 6.84827e-05 -9.03517e-05 -8.49924e-05 0.000141693
15 1 7.1853 6.89691 4.09308 2.89569e-05 3.29279e-05 1.3339e-05 4.58332e-05
16 1 8.72101 7.69326 6.10517 -5.37636e-05 -1.2619e-05 -6.20032e-06 5.55716e-05
17 1 10.0523 1.91314 9.25861 5.14228e-06 8.13797e-06 1.1889e-05 1.52977e-05
18 1 10.2665 2.98996 6.88904 4.44425e-06 -1.55036e-05 -1.57328e-05 2.25307e-05
19 1 8.58156 1.17209 7.31263 9.79483e-06 -1.48225e-05 -2.47262e-05 3.04472e-05
20 1 6.40062 2.72306 4.82371 6.0238e-05 -6.23792e-05 8.08543e-06 8.70928e-05
21 1 6.04514 7.06843 8.29609 -2.44595e-05 2.22616e-05 -1.36064e-06 3.31013e-05
22 1 7.47076 7.76806 10.2961 -3.77288e-05 4.38009e-06 2.80524e-05 4.72185e-05
23 1 7.24276 9.22405 12.2039 3.24119e-05 5.43403e-05 3.79459e-05 7.37787e-05
24 1 6.71366 10.6304 1.3074 3.56196e-05 -7.04483e-06 5.37105e-05 6.48321e-05
25 1 6.46847 9.40755 3.63974 2.90661e-05 -4.01735e-06 4.7895e-05 5.61686e-05
26 1 7.94065 10.0903 5.65292 -3.27365e-05 -6.17807e-05 4.36543e-05 8.24271e-05
27 1 5.29058 9.42945 7.89375 -5.51081e-05 -1.8982e-05 5.66301e-05 8.12662e-05
28 1 8.47318 6.57263 8.36765 -2.65677e-05 -4.03212e-05 -2.62611e-05 5.49662e-05
29 1 6.73869 10.1699 9.88356 -4.12764e-05 2.71615e-05 1.61673e-05 5.19891e-05
30 1 5.78801 11.7639 3.24495 5.71505e-05 2.07075e-05 4.15391e-05 7.36239e-05
31 1 6.97117 11.3216 7.55159 -1.83247e-05 -3.61022e-05 2.82678e-05 4.93785e-05
32 1 3.58531 1.38286 0.808184 5.27471e-05 -1.12614e-06 1.61262e-05 5.51687e-05
33 1 7.16733 0.35827 5.21087 2.63039e-06 2.1119e-05 3.28479e-05 3.91397e-05
34 1 5.97926 0.458574 9.46737 -4.11743e-05 -9.98718e-07 4.45671e-05 6.0684e-05
35 1 7.49797 1.2886 11.4567 -5.35431e-05 1.26134e-05 4.84409e-06 5.52216e-05
36 1 5.00386 2.03502 2.81879 3.47332e-05 -7.63355e-06 1.01225e-05 3.69748e-05
37 1 6.03533 11.5406 11.7877 -5.61723e-05 -1.82548e-05 3.02058e-05 6.63397e-05
38 1 6.28857 8.21302 5.96688 7.68546e-06 -1.5141e-05 -1.30038e-05 2.13872e-05
39 1 9.89728 7.2423 10.2952 -2.52355e-05 -1.56168e-05 -4.30426e-05 5.22817e-05
40 1 9.04083 10.1482 0.998616 4.0758e-05 2.02956e-05 -4.20046e-05 6.19477e-05
41 1 9.25579 4.23443 8.79526 -2.11898e-06 2.99361e-05 3.46387e-05 4.58312e-05
42 1 1.71868 4.46795 10.8565 -9.98556e-06 -1.16737e-05 -2.50816e-05 2.94122e-05
43 1 10.7381 5.42608 2.19384 -1.2745e-05 2.37185e-05 1.75657e-05 3.2149e-05
44 1 8.02966 4.58735 4.50464 5.28297e-05 -1.10173e-05 1.36812e-06 5.39836e-05
45 1 11.148 7.21832 6.15721 -1.32132e-05 -6.8081e-06 -8.02134e-05 8.15789e-05
46 1 8.22082 5.41922 10.7259 1.45706e-05 6.06868e-06 7.46632e-06 1.74607e-05
47 1 9.6838 6.42197 4.16877 9.52822e-05 -1.34037e-05 -1.18326e-05 9.69452e-05
48 1 10.1653 8.46133 8.01863 -3.30998e-05 -4.37426e-07 -1.91937e-05 3.82647e-05
49 1 10.8804 12.0185 1.13556 1.66837e-05 1.50346e-05 3.98903e-06 2.281e-05
50 1 10.3577 9.82177 2.8187 0.000146359 0.000350282 -1.73379e-05 0.000380025
51 1 8.44828 0.430041 0.909954 5.53649e-05 -5.36779e-07 5.26326e-05 7.63921e-05
52 1 9.80492 1.36717 2.82958 3.68855e-05 6.24336e-05 -2.16921e-05 7.56904e-05
53 1 10.4796 4.09453 4.55993 -3.92696e-06 1.6772e-05 -3.617e-05 4.00624e-05
54 1 10.8122 6.45259 12.6605 -2.2137e-05 8.19272e-05 3.96306e-06 8.49577e-05
55 1 0.381183 9.67407 1.07758 2.14832e-05 -1.56686e-05 6.3443e-05 6.87899e-05
56 1 9.48137 5.33041 6.46455 -1.79175e-05 -7.68055e-06 -2.80119e-05 3.41276e-05
57 1 7.82097 3.48094 6.81791 -2.56658e-05 -6.89405e-05 -1.65283e-05 7.53971e-05
58 1 9.06021 3.59214 2.5257 4.63493e-05 3.50029e-05 2.91702e-06 5.81548e-05
59 1 10.1187 2.34828 0.595245 6.42484e-05 3.97386e-05 4.91217e-07 7.55464e-05
60 1 8.74364 8.65446 3.86846 -0.000131608 -7.57488e-05 0.000148989 0.000212735
61 1 10.392 9.66354 5.60962 6.55249e-06 -3.86121e-06 -3.35333e-06 8.31197e-06
62 1 7.71507 8.94234 7.97355 -8.28649e-05 -1.05998e-06 -1.81126e-05 8.48279e-05
63 1 9.16939 9.65694 9.9358 -2.72066e-05 4.50594e-05 -7.03154e-06 5.31035e-05
64 1 8.47491 11.1222 11.7014 -1.9443e-05 -8.14816e-05 3.11081e-05 8.93588e-05
65 1 8.33517 11.2495 3.27808 3.50102e-05 2.76317e-05 3.36782e-06 4.47277e-05
66 1 9.40028 10.801 7.67259 -2.00829e-05 3.69404e-05 5.39124e-06 4.23908e-05
67 1 9.83826 8.67393 12.1692 -6.26078e-05 -8.00314e-05 2.36217e-05 0.00010432
68 1 6.01887 0.90692 0.882008 1.48392e-05 2.83584e-05 7.30529e-05 7.97567e-05
69 1 8.40799 0.0149166 9.50469 -1.32412e-05 8.95535e-06 -2.05725e-05 2.60529e-05
70 1 9.98517 0.822667 11.5664 4.32376e-05 3.36826e-05 -8.21311e-06 5.54208e-05
71 1 7.41307 1.55085 2.89169 -1.19622e-05 -3.31206e-05 -8.82119e-08 3.52147e-05
72 1 8.82898 2.23539 4.9091 1.39205e-05 -1.25178e-05 3.52129e-05 3.98801e-05
73 1 11.2715 1.7502 4.97686 4.3699e-05 -1.20659e-05 3.53377e-05 5.74799e-05
74 1 10.8311 11.6284 9.629 -1.52646e-05 7.73166e-06 3.23273e-05 3.65765e-05
75 1 0.125041 2.63882 11.2194 -5.06011e-05 -8.63961e-06 -5.69114e-06 5.16479e-05
76 1 9.50947 12.0163 5.55874 -8.55711e-06 1.27641e-05 7.63027e-05 7.78347e-05
77 1 0.182371 9.19054 10.0292 -2.69481e-05 -1.85385e-05 -1.312e-05 3.52422e-05
78 1 4.82361 7.49693 3.96711 4.42556e-05 -3.60704e-05 -1.44518e-05 5.88939e-05
79 1 8.31326 6.94477 12.6193 -2.43383e-06 2.20004e-05 -1.2993e-05 2.56663e-05
80 1 2.32593 1.31045 5.0793 -8.38213e-06 2.9973e-05 -7.4314e-06 3.19979e-05
81 1 11.0435 0.666282 7.39136 2.89461e-05 -6.16937e-05 -3.32568e-05 7.58288e-05
82 1 1.07267 0.330375 11.654 -5.83169e-05 -4.67707e-05 3.45367e-05 8.23476e-05
83 1 1.08648 0.904513 2.93408 0.000138262 5.54874e-05 -7.89441e-06 0.00014919
84 1 1.53779 3.62957 4.62749 1.89836e-05 -5.41943e-05 7.29898e-06 5.78851e-05
85 1 3.75133 2.0622 7.05998 -8.55456e-06 7.02106e-06 3.63176e-05 3.79664e-05
86 1 5.17679 2.82457 9.04966 -5.00263e-05 -4.24803e-06 1.23755e-05 5.17091e-05
87 1 2.7458 3.2843 8.94682 2.07944e-05 -9.2853e-06 1.3223e-06 2.28117e-05
88 1 2.58592 2.16911 11.3033 3.74795e-05 7.75178e-05 1.93539e-07 8.61032e-05
89 1 0.320474 4.19189 0.266129 8.92388e-06 -7.49455e-05 -1.51149e-05 7.69735e-05
90 1 1.7838 4.94894 2.24912 3.87007e-05 2.16267e-05 -8.38613e-06 4.51197e-05
91 1 1.97255 5.62376 8.47792 -2.44058e-05 2.07147e-05 -2.17439e-05 3.8698e-05
92 1 0.307389 3.75821 8.86129 -1.49221e-05 -5.80015e-06 -1.4289e-05 2.1459e-05
93 1 4.3547 5.54588 0.0302116 1.03799e-05 -5.1323e-05 -1.22826e-05 5.37834e-05
94 1 1.89315 5.99302 12.7421 2.44335e-07 2.52744e-06 -2.14876e-05 2.16371e-05
95 1 2.12985 0.186703 7.48113 -5.98988e-05 1.72398e-05 3.06481e-05 6.94578e-05
96 1 10.8568 11.6909 3.77555 -6.40755e-06 -0.000254414 -0.000174438 0.000308539
97 1 10.9584 10.6653 11.8662 2.87196e-05 9.00375e-05 -5.57641e-05 0.000109732
98 1 1.86771 11.1181 9.74882 -6.29336e-05 2.22745e-05 5.6092e-05 8.71958e-05
99 1 1.10288 1.41413 9.33532 -4.65135e-05 -1.77212e-06 3.05079e-06 4.66471e-05
100 1 0.141454 3.11794 2.58747 7.20726e-05 4.05218e-05 5.96776e-06 8.28981e-05
101 1 10.9168 6.08073 8.39833 -5.38599e-05 -1.1599e-06 -5.3686e-05 7.60553e-05
102 1 0.969266 7.32961 1.81858 -7.88764e-06 2.70761e-05 -3.92699e-05 4.83473e-05
103 1 0.530494 4.85713 6.52289 -2.4553e-07 -8.36926e-07 -1.69045e-05 1.6927e-05
104 1 3.3668 7.83483 12.4657 3.88612e-07 2.75819e-05 -2.39581e-05 3.65364e-05
105 1 2.68661 9.20347 1.57167 5.12095e-06 -7.34346e-06 -4.03899e-05 4.13702e-05
106 1 3.40826 6.79812 1.94895 2.84915e-05 1.58473e-05 8.73249e-06 3.37514e-05
107 1 0.0304939 8.16936 3.93454 3.32693e-05 -5.29537e-05 5.59923e-05 8.39409e-05
108 1 1.1991 7.99018 8.11327 -5.59259e-05 -2.18547e-05 4.64258e-07 6.00462e-05
109 1 2.61053 8.7175 10.1366 -5.05451e-05 -2.32601e-05 -1.73091e-05 5.82704e-05
110 1 0.926778 8.18901 12.1824 -2.23016e-05 6.23051e-06 -4.40063e-05 4.97266e-05
111 1 1.93788 11.6166 1.13995 2.86137e-05 -2.19333e-05 1.0997e-05 3.76928e-05
112 1 1.50363 10.359 3.45629 9.13971e-06 4.65919e-06 -4.11298e-06 1.10526e-05
113 1 3.10585 11.0535 5.49544 2.07223e-05 -4.16702e-05 -1.40471e-05 4.86122e-05
114 1 0.420516 10.3461 7.77151 -4.88607e-05 2.96149e-05 -2.89551e-05 6.40532e-05
115 1 1.41892 9.14858 5.81614 -1.39862e-06 -8.47798e-06 -5.21962e-06 1.00537e-05
116 1 7.48435 8.23348 1.73006 3.70052e-05 4.56712e-05 -1.32328e-05 6.02524e-05
117 1 0.763905 5.93383 4.23173 -6.44428e-05 4.00415e-05 3.66172e-06 7.5958e-05
118 1 0.911789 6.75022 10.3398 -3.74134e-05 4.69648e-05 6.48259e-06 6.03944e-05
119 1 3.97547 3.20152 4.7272 -1.43572e-05 7.77588e-06 -1.36917e-06 1.6385e-05
120 1 6.17546 1.58738 7.14583 -1.13545e-05 -1.15185e-05 3.15074e-06 1.64781e-05
121 1 7.59752 2.38775 9.17107 -1.78277e-05 -9.70709e-06 -2.15125e-06 2.04128e-05
122 1 5.0411 1.72416 11.3865 6.48051e-07 5.17959e-05 -1.80599e-05 5.48579e-05
123 1 5.2253 3.23471 0.466408 -6.05585e-06 -2.45784e-06 -5.84953e-06 8.77104e-06
124 1 2.78323 3.71337 0.348676 2.98912e-05 3.8202e-05 -3.46118e-05 5.9589e-05
125 1 4.23346 4.44851 2.36331 4.80282e-05 2.37377e-05 5.24714e-06 5.38305e-05
126 1 2.96739 4.41677 6.60051 2.29333e-05 1.00132e-05 -1.75546e-05 3.05674e-05
127 1 4.39021 5.17925 8.61741 -3.73578e-05 7.75054e-07 -1.43159e-05 4.00143e-05
128 1 4.15606 4.02569 10.9559 -3.49064e-05 -4.91391e-05 8.00922e-06 6.08051e-05
129 1 6.80758 5.09168 0.147777 -1.30295e-05 -1.47956e-05 -4.31728e-06 2.01821e-05
130 1 5.83471 6.31637 2.04828 7.23462e-06 1.25514e-05 -4.14962e-06 1.50697e-05
131 1 3.18675 5.57671 4.28241 7.95706e-05 -4.4659e-06 -2.50045e-05 8.35263e-05
132 1 4.61542 6.32553 6.29295 -3.13552e-05 -1.10039e-05 -1.96241e-05 3.8592e-05
133 1 3.34427 6.35496 10.5343 -1.39045e-05 -2.58179e-05 -7.41765e-05 7.97625e-05
134 1 2.64203 2.64801 2.67933 1.43682e-05 6.64465e-06 1.78189e-05 2.38351e-05
135 1 3.55934 11.9794 11.7294 -2.86243e-05 2.65061e-06 4.64792e-05 5.46506e-05
136 1 3.55121 0.930112 9.40975 -4.53199e-06 -1.76483e-05 -8.94653e-06 2.02988e-05
137 1 4.75325 0.84532 5.16047 1.75706e-05 -1.03684e-05 2.79836e-05 3.46311e-05
138 1 5.84187 7.38895 12.544 4.25502e-06 -1.44028e-05 7.41759e-06 1.67501e-05
139 1 5.0693 8.69917 1.64361 6.65369e-05 1.569e-05 -3.36538e-05 7.61965e-05
140 1 2.42287 7.96994 3.87092 3.7081e-05 1.14393e-06 -7.9002e-06 3.79305e-05
141 1 3.85079 8.69015 5.89545 -3.35472e-05 2.63429e-05 1.83719e-05 4.64424e-05
142 1 3.61988 7.53746 8.20869 -2.47314e-05 -2.95344e-06 -1.04209e-05 2.69992e-05
143 1 5.04045 8.25215 10.2256 -4.18701e-05 -3.14622e-05 -1.69674e-05 5.50533e-05
144 1 4.70935 9.68565 12.1455 -2.72085e-05 2.50529e-05 7.2777e-06 3.76951e-05
145 1 2.18431 6.78786 6.18314 -1.01866e-05 -5.6072e-08 -6.36536e-06 1.20119e-05
146 1 4.33476 11.1183 1.23022 5.63989e-05 2.30806e-06 -2.87665e-05 6.33536e-05
147 1 5.51434 10.5783 5.57402 3.4911e-06 -3.90886e-05 3.97141e-08 3.92442e-05
148 1 2.85679 9.9054 7.81783 -7.58521e-06 -2.81617e-05 1.91886e-05 3.49116e-05
149 1 4.30433 10.6419 9.81935 -1.01728e-05 -1.91109e-05 -5.78569e-06 2.24095e-05
150 1 2.16372 10.1426 12.054 -8.70479e-06 4.83018e-07 5.59208e-06 1.03575e-05
151 1 3.35507 0.146674 3.17125 -2.2747e-05 3.10098e-05 2.6836e-05 4.68957e-05
152 1 4.53855 11.7932 7.49406 -1.987e-05 8.45723e-06 3.45873e-05 4.07753e-05
153 1 1.14609 1.88255 0.666959 1.23238e-05 3.16749e-05 1.58926e-05 3.752e-05
154 1 4.03828 9.88716 3.56574 4.88997e-06 1.64889e-05 1.41855e-05 2.2294e-05
155 1 0.759035 11.5263 5.64434 1.80293e-05 1.53533e-05 6.94581e-05 7.3384e-05
