ITEM: TIMESTEP
0
ITEM: NUMBER OF ATOMS
135
ITEM: BOX BOUNDS pp pp pp
0.0000000000000000e+00 1.1464695000000001e+01
0.0000000000000000e+00 1.1317634999999999e+01
0.0000000000000000e+00 1.1648808000000001e+01
ITEM: ATOMS id type x y z fx fy fz v_fmag
1 1 10.8747 10.9824 0.990389 -0.000162209 0.000119771 -7.80606e-05 0.000216218
2 1 11.2073 2.08117 10.4518 2.35338e-05 -1.30694e-05 -1.28977e-05 2.98496e-05
3 1 9.35633 2.98065 3.25356 1.51278e-07 1.48747e-05 -1.23568e-05 1.93384e-05
4 1 9.64286 0.604944 2.88817 -3.39533e-06 1.77138e-05 1.47248e-05 2.32836e-05
5 1 9.54449 0.638602 11.1379 0.000261244 -0.0001858 0.000151346 0.000354507
6 1 10.2127 2.52772 6.82822 -2.49087e-05 3.56507e-05 6.43003e-07 4.34952e-05
7 1 8.66649 1.39524 5.03842 9.43973e-06 3.30677e-06 -1.83357e-05 2.08864e-05
8 1 8.17896 10.8124 9.65945 -7.84309e-05 -1.00186e-05 -3.91081e-06 7.91649e-05
9 1 7.21658 0.32715 3.19245 -6.66113e-06 1.14208e-06 2.56795e-05 2.65539e-05
10 1 4.50536 9.62519 11.1442 2.57567e-05 -4.25223e-05 8.75843e-06 5.04803e-05
11 1 4.79558 11.3065 3.53601 -8.63745e-06 1.98936e-05 2.06931e-05 2.99761e-05
12 1 2.10645 9.25653 11.4916 5.91548e-05 -8.8608e-05 -6.10667e-06 0.000106714
13 1 7.88727 11.1047 6.87037 -2.01433e-05 -9.06677e-06 -8.77406e-07 2.21072e-05
14 1 5.48102 8.33855 6.67227 -1.62343e-05 1.36314e-05 -2.11048e-06 2.13031e-05
15 1 6.42461 10.0086 4.98955 -8.75884e-06 5.58854e-06 2.93291e-05 3.1115e-05
16 1 10.365 2.17387 1.11312 -3.95428e-05 -9.74612e-06 -2.63419e-05 4.85027e-05
17 1 5.02806 8.86175 3.14983 5.4323e-07 7.83051e-07 -2.83876e-05 2.84036e-05
18 1 6.65343 9.48602 8.49547 1.86349e-06 1.73354e-05 2.13355e-05 2.75534e-05
19 1 4.62046 6.62056 8.32379 -4.97139e-05 1.23893e-05 4.90902e-06 5.14691e-05
20 1 6.58747 7.58838 4.61159 1.39835e-05 3.82609e-05 -1.91931e-05 4.50312e-05
21 1 5.09949 6.40054 2.67909 -4.15508e-05 -1.77194e-05 5.27742e-05 6.94662e-05
22 1 8.59313 8.29418 1.03254 -3.45116e-05 6.42851e-06 2.45278e-05 4.28251e-05
23 1 7.63146 6.87521 11.068 4.62572e-05 -2.24144e-05 2.23579e-05 5.60536e-05
24 1 6.38659 5.41418 9.6479 -4.11336e-05 -1.10535e-05 1.7636e-05 4.60996e-05
25 1 5.76237 5.89513 6.19124 -1.36973e-05 2.41324e-05 -2.63308e-05 3.82531e-05
26 1 4.34674 4.76012 4.40259 -1.97151e-05 9.5699e-06 6.66561e-05 7.01663e-05
27 1 5.87807 5.58882 0.416622 -7.85619e-05 1.81727e-05 1.51469e-05 8.20466e-05
28 1 7.50368 4.66507 7.48472 8.26944e-06 -4.92114e-06 -5.7374e-05 5.81754e-05
29 1 6.03503 3.48674 5.76524 -8.15565e-06 3.39655e-05 -5.27404e-05 6.32591e-05
30 1 5.15058 3.99331 2.15032 1.05057e-05 5.54407e-06 7.24895e-05 7.34564e-05
31 1 5.99915 3.1608 11.5198 5.69957e-05 2.25172e-05 2.75977e-05 6.72099e-05
32 1 5.81449 10.4666 1.43481 -1.87868e-05 -8.62538e-06 -2.01423e-05 2.88627e-05
33 1 10.6603 4.42993 10.9408 2.27988e-05 1.53256e-05 -2.03837e-05 3.42076e-05
34 1 7.52996 4.17496 1.87184 3.99962e-05 3.04169e-05 -1.44269e-05 5.22783e-05
35 1 9.9419 4.91281 7.1949 -2.20088e-06 -3.39268e-05 -3.40324e-05 4.81048e-05
36 1 11.3558 10.6394 4.24732 -1.71669e-05 -2.62604e-05 -5.26151e-07 3.13782e-05
37 1 9.55351 9.56158 11.0026 -3.38825e-05 3.84178e-05 -5.95765e-05 7.85705e-05
38 1 10.5243 8.98217 5.9322 -7.38427e-06 1.11146e-05 1.42594e-05 1.95293e-05
39 1 9.97383 9.48755 2.5689 -4.54157e-05 2.36716e-06 1.41901e-05 4.76398e-05
40 1 11.0914 8.3962 9.46468 5.06912e-05 1.58949e-05 -5.78133e-05 7.85151e-05
41 1 9.70758 7.31585 7.57618 1.7211e-05 -2.06025e-05 6.80731e-06 2.76951e-05
42 1 10.4505 7.093 2.04109 6.02063e-05 4.33969e-05 -6.34174e-05 9.7621e-05
43 1 11.3203 5.95139 9.05879 -3.63444e-06 -1.70288e-05 -3.83759e-05 4.21414e-05
44 1 10.7204 6.53265 5.46277 1.05509e-05 -3.90529e-05 2.48581e-05 4.74803e-05
45 1 9.25025 5.44649 3.61012 -1.60268e-05 1.73556e-05 -6.43898e-05 6.85866e-05
46 1 10.8993 4.1197 5.05888 -3.95627e-05 -2.31217e-05 -3.63214e-05 5.84728e-05
47 1 10.4159 4.44998 1.68895 4.0609e-06 1.50603e-05 -9.76047e-06 1.84002e-05
48 1 11.0995 1.71418 4.67116 6.7847e-05 -2.3268e-05 4.23311e-06 7.18508e-05
49 1 9.57861 1.01775 8.61704 -5.38452e-05 2.38498e-05 -3.16673e-05 6.6865e-05
50 1 8.48123 3.82407 5.37779 -7.84964e-06 2.26308e-09 -3.32516e-05 3.41655e-05
51 1 7.00734 9.47801 11.1118 -1.90303e-05 -3.60939e-05 9.86651e-07 4.08153e-05
52 1 8.02748 8.70247 6.40735 4.94625e-07 -1.5394e-05 2.85052e-05 3.24001e-05
53 1 8.8663 10.3141 4.66094 -2.46346e-05 -3.6764e-06 2.03661e-05 3.21738e-05
54 1 7.42907 9.23756 2.89482 -7.16565e-07 -1.51901e-06 -3.21764e-05 3.22202e-05
55 1 8.25562 10.7808 1.12095 5.21118e-07 2.33302e-05 -2.28045e-05 3.26284e-05
56 1 8.50539 8.23121 9.41992 -1.40239e-05 -7.43261e-06 -2.10721e-05 2.63808e-05
57 1 7.09587 7.02039 7.94448 -1.92516e-05 -3.29851e-05 -2.2613e-05 4.43845e-05
58 1 9.09069 7.86733 4.14661 -1.10562e-05 4.60876e-07 -2.12956e-05 2.3999e-05
59 1 7.44957 6.79283 2.54307 9.1034e-07 2.27899e-05 -5.68352e-05 6.12409e-05
60 1 11.3517 8.69362 0.40651 4.75492e-05 4.01725e-05 -8.79704e-05 0.000107766
61 1 10.1541 6.87994 11.0626 -4.54087e-05 2.83991e-05 -7.10826e-05 8.90011e-05
62 1 8.86863 5.75392 9.28271 -1.49046e-05 -1.66023e-06 -3.07517e-05 3.42136e-05
63 1 8.26288 6.25392 5.806 5.64475e-06 -1.69576e-05 -3.40494e-05 3.8455e-05
64 1 6.76773 5.08398 4.06065 -1.78284e-05 6.45983e-06 -1.68e-05 2.53342e-05
65 1 8.8247 5.82995 0.999344 8.02668e-05 8.94056e-05 2.02907e-05 0.000121852
66 1 9.64902 9.83568 8.08202 -1.97155e-05 3.16852e-05 4.35677e-05 5.73655e-05
67 1 10.3599 0.118099 6.4111 3.34187e-05 -2.7786e-05 -1.31164e-05 4.53973e-05
68 1 9.26388 3.3907 9.00485 -1.65781e-05 -1.1864e-05 1.70218e-05 2.65581e-05
69 1 7.92055 1.87757 1.27136 -2.06524e-05 1.7191e-05 5.63917e-05 6.24666e-05
70 1 0.559802 10.0539 7.77581 5.42795e-06 -2.625e-05 -5.04435e-06 2.72758e-05
71 1 1.50669 9.30446 5.59524 -6.19751e-06 2.03142e-05 2.20935e-05 3.06463e-05
72 1 2.37035 10.9797 3.89325 -1.39799e-05 -1.82848e-06 -3.40547e-05 3.68578e-05
73 1 0.171676 8.19793 3.83564 2.0817e-06 2.93123e-05 -2.3469e-06 2.94797e-05
74 1 1.08603 9.83547 2.17677 2.82661e-05 -3.6322e-05 5.13318e-05 6.89435e-05
75 1 1.98188 8.56243 9.17263 1.31096e-05 -3.73327e-05 -1.06658e-06 3.9582e-05
76 1 1.7073 6.86238 5.18406 -2.90807e-05 1.51079e-05 6.5565e-06 3.34204e-05
77 1 0.343231 5.72265 3.41026 -4.73638e-05 1.88765e-05 -1.61052e-05 5.34699e-05
78 1 3.65684 7.92539 1.29806 -9.78776e-06 -3.12257e-05 4.56862e-05 5.61967e-05
79 1 3.55858 7.24157 10.6214 2.84676e-05 -4.61227e-05 2.15324e-05 5.83211e-05
80 1 1.18397 6.8548 10.9655 -1.06418e-05 -2.45526e-05 5.39764e-06 2.72986e-05
81 1 0.893253 5.18844 6.8954 -7.13321e-06 -2.84485e-05 -3.04227e-05 4.22581e-05
82 1 1.11045 5.13224 1.14143 -3.62948e-05 2.3702e-05 -4.74058e-06 4.3607e-05
83 1 2.63184 3.77761 8.34019 3.50445e-06 2.22654e-05 6.99725e-06 2.36006e-05
84 1 4.58108 0.0146845 9.27923 1.76955e-05 -1.8211e-05 3.29642e-05 4.16102e-05
85 1 1.14616 2.78392 6.49334 1.83513e-05 -2.61916e-05 -2.41328e-05 4.00644e-05
86 1 1.23106 2.73333 0.733136 -2.6989e-06 -1.10251e-05 -9.17123e-06 1.45928e-05
87 1 4.12101 4.83452 10.1696 -8.69725e-07 -4.92897e-05 1.2758e-05 5.09215e-05
88 1 4.44952 2.40699 9.69841 6.91126e-05 -1.02468e-06 3.44799e-05 7.72429e-05
89 1 2.1114 2.04471 4.31777 2.19019e-05 1.30678e-05 -2.81099e-06 2.56586e-05
90 1 3.05806 1.3872 2.0999 -1.82703e-06 -5.81815e-06 2.3494e-05 2.42726e-05
91 1 2.11014 2.04015 10.1361 4.80344e-05 -3.43102e-05 2.01817e-05 6.23842e-05
92 1 2.86455 1.40099 7.88242 -2.88942e-06 1.27027e-05 4.93962e-05 5.10851e-05
93 1 1.31624 0.405728 6.03663 1.73085e-06 -1.74738e-05 3.18055e-05 3.63307e-05
94 1 1.55111 0.336194 0.268786 -4.5037e-06 -3.09084e-05 1.91089e-06 3.12932e-05
95 1 0.503072 1.13285 8.28697 1.24802e-05 -4.85081e-05 1.92474e-05 5.36587e-05
96 1 1.37107 7.43447 1.70872 1.45319e-05 7.35135e-05 -1.21162e-06 7.49458e-05
97 1 1.69698 4.44961 10.5446 -1.89947e-05 -6.00524e-05 -2.62469e-05 6.82348e-05
98 1 0.221463 3.58337 8.65832 1.57411e-05 -4.22315e-05 -8.09471e-06 4.57909e-05
99 1 0.687552 0.962335 2.54229 2.14438e-05 3.8519e-05 1.10931e-05 4.54599e-05
100 1 0.466778 3.29391 3.01169 2.12898e-05 -1.26347e-05 9.59524e-06 2.65511e-05
101 1 6.92895 2.66241 3.60064 3.60679e-05 6.35794e-07 -2.92393e-05 4.64353e-05
102 1 6.28372 0.537408 11.155 -1.85406e-05 -1.73346e-06 -6.70386e-06 1.97914e-05
103 1 5.14521 1.9223 7.37736 5.45185e-05 5.41946e-05 -1.63189e-05 7.85851e-05
104 1 7.97935 2.01289 10.4649 -0.000177507 0.000301407 -4.1405e-05 0.000352235
105 1 7.7959 2.24749 7.15403 -2.78036e-07 3.39168e-05 -3.93735e-05 5.19682e-05
106 1 6.24717 1.08202 5.37088 5.58886e-05 -1.47073e-05 -1.09609e-05 5.88216e-05
107 1 6.6723 0.831709 8.70705 3.03049e-05 8.54495e-05 1.77127e-05 9.23783e-05
108 1 2.92094 10.3735 7.35399 3.26952e-05 -4.50238e-06 4.30952e-05 5.42811e-05
109 1 2.29276 10.9421 9.65871 5.16306e-05 -5.99279e-05 1.13168e-05 7.99071e-05
110 1 5.32556 10.7972 7.02077 4.49173e-05 1.42242e-05 6.78428e-06 4.76017e-05
111 1 3.03919 7.93627 6.96757 1.65877e-05 5.63376e-05 6.84414e-06 5.91262e-05
112 1 3.96731 9.63599 5.25728 -5.22538e-06 2.94238e-05 3.78045e-05 4.81897e-05
113 1 2.63567 8.54339 3.50265 -6.60252e-05 2.49459e-05 -2.01108e-05 7.33898e-05
114 1 3.40357 10.3257 1.68885 -1.13596e-05 -5.44573e-05 -2.12357e-07 5.56299e-05
115 1 4.27714 9.02548 8.7757 3.31034e-05 -2.17261e-05 3.94645e-05 5.59045e-05
116 1 0.647882 7.601 7.31077 -3.57578e-05 -2.40496e-05 -7.63911e-06 4.37648e-05
117 1 4.16066 7.19178 4.86054 1.20778e-05 4.79439e-05 9.57939e-08 4.94419e-05
118 1 3.75204 0.74627 5.65182 3.6062e-06 6.80256e-06 3.58892e-05 3.67058e-05
119 1 2.75372 6.1024 3.08806 -3.82421e-05 -1.00787e-05 -7.76529e-06 4.03031e-05
120 1 5.7881 7.7455 10.0651 -6.72179e-05 -3.43398e-05 -2.3056e-06 7.55168e-05
121 1 2.27403 6.16185 8.76307 -3.78426e-05 -4.4011e-05 7.16636e-06 5.84841e-05
122 1 3.29076 5.53075 6.54189 -2.07968e-05 -2.73575e-06 1.97078e-05 2.87818e-05
123 1 1.90241 4.43383 4.76703 -1.75702e-05 -3.53335e-05 8.91201e-06 4.04548e-05
124 1 3.44638 5.53781 0.784188 -3.27567e-05 -4.55227e-05 2.36108e-05 6.08506e-05
125 1 4.94412 4.2901 7.85846 1.66569e-05 5.20635e-05 -4.81052e-05 7.2816e-05
126 1 3.53121 3.14512 6.09041 -2.1043e-05 1.85291e-05 8.69958e-06 2.93567e-05
127 1 2.78467 3.7603 2.54302 3.34993e-05 -3.11004e-05 4.09286e-06 4.58932e-05
128 1 3.59708 3.12241 0.293277 5.18252e-05 -3.45887e-05 3.74873e-05 7.27154e-05
129 1 8.13339 4.26487 11.0832 -2.39221e-05 -1.34197e-06 -2.83254e-05 3.70998e-05
130 1 6.6196 3.18188 9.08811 0.000141967 -6.07756e-05 0.000102092 0.000185125
131 1 4.52732 2.37843 3.92936 -1.4909e-07 -2.48898e-05 2.67825e-05 3.65627e-05
132 1 5.48851 1.58907 1.70193 -5.68781e-05 -6.81256e-06 1.93134e-06 5.73172e-05
133 1 3.90219 0.70424 11.5263 3.13949e-05 -5.68722e-05 -3.03393e-05 7.16977e-05
134 1 6.01061 7.99516 0.99106 -1.26716e-05 1.60827e-05 -7.76565e-06 2.18981e-05
135 1 11.4166 10.7917 10.0921 1.17864e-05 1.83585e-05 4.76025e-05 5.23636e-05
