ITEM: TIMESTEP
0
ITEM: NUMBER OF ATOMS
144
ITEM: BOX BOUNDS pp pp pp
0.0000000000000000e+00 1.1400361000000000e+01
0.0000000000000000e+00 1.2098903999999999e+01
0.0000000000000000e+00 1.2816801000000000e+01
ITEM: ATOMS id type x y z fx fy fz v_fmag
1 1 1.07224 1.64981 9.96063 1.39003e-05 1.17447e-05 1.50503e-05 2.3615e-05
2 1 8.20308 4.26272 5.10676 3.68915e-05 -2.90292e-05 -1.51029e-05 4.9313e-05
3 1 6.68154 3.26746 6.84208 4.86635e-05 -1.20517e-05 -5.52806e-06 5.04375e-05
4 1 7.91666 4.62968 8.64755 -2.78639e-07 3.13608e-05 2.09244e-05 3.77015e-05
5 1 6.39575 3.66112 10.3957 -2.48256e-05 4.26396e-05 -9.20538e-06 5.01915e-05
6 1 7.62097 5.03096 12.208 -1.58595e-05 -1.72437e-05 -2.1627e-05 3.18841e-05
7 1 8.83244 6.4157 1.19866 -2.87457e-05 -1.05578e-05 5.88807e-06 3.11842e-05
8 1 8.52979 3.82318 1.56092 4.2891e-06 -5.04423e-05 5.85381e-06 5.09617e-05
9 1 7.28281 5.47388 2.94424 2.66074e-05 -1.83603e-05 -1.76556e-05 3.68344e-05
10 1 6.97158 5.89194 6.50362 7.22375e-06 2.76292e-05 2.71508e-05 3.94046e-05
11 1 8.20218 7.26992 8.33055 -4.51939e-05 -2.21024e-06 -2.43228e-05 5.13709e-05
12 1 6.66582 6.27667 10.0511 3.5523e-06 2.08323e-05 1.25367e-05 2.45718e-05
13 1 5.42395 7.92659 11.4374 -2.25244e-05 -1.05312e-05 1.07463e-05 2.70877e-05
14 1 9.16663 9.10287 0.80253 9.16284e-08 -4.28827e-05 -1.60898e-06 4.2913e-05
15 1 7.60156 8.10484 2.55876 -3.45482e-05 -1.62897e-06 3.96626e-05 5.26246e-05
16 1 8.50672 6.87356 4.7593 -1.88942e-05 1.98458e-05 5.05032e-07 2.74063e-05
17 1 8.80629 9.47677 4.41741 -2.46854e-05 -5.76318e-05 1.4407e-06 6.27126e-05
18 1 9.77924 2.2132 0.146013 2.02772e-05 -2.59486e-05 -2.81228e-05 4.33057e-05
19 1 5.43024 1.86945 5.05539 8.44243e-06 -4.33348e-06 -1.86899e-06 9.67195e-06
20 1 6.34594 9.73366 3.98233 -1.77023e-05 1.9307e-05 7.6581e-06 2.72906e-05
21 1 4.79481 8.76598 5.73469 -3.71317e-05 1.34408e-05 -1.97742e-05 4.41638e-05
22 1 6.01585 10.1408 7.55083 -1.28813e-05 4.45992e-05 -6.51597e-06 4.68773e-05
23 1 4.49072 9.1595 9.28913 -4.62255e-06 1.96328e-05 2.9116e-06 2.03787e-05
24 1 5.76055 10.5639 11.0712 -3.55875e-06 1.10336e-05 -2.528e-06 1.18657e-05
25 1 5.43267 10.961 1.81465 2.75705e-06 3.90799e-05 -1.48853e-05 4.19096e-05
26 1 7.63137 2.03575 8.97673 1.07363e-05 -1.45378e-05 1.54632e-05 2.3785e-05
27 1 5.09101 11.3701 5.3932 -8.35996e-06 3.82802e-05 -1.37022e-05 4.15092e-05
28 1 9.4784 11.6374 0.47069 1.29788e-05 -4.2463e-05 -1.50459e-05 4.68821e-05
29 1 9.11018 12.0933 4.07917 3.47868e-05 1.65482e-05 -2.15366e-05 4.41337e-05
30 1 8.91803 0.43922 7.54845 -6.26094e-06 -2.2714e-05 1.94043e-05 3.0523e-05
31 1 10.9722 0.579955 11.6119 1.30684e-05 1.29967e-05 6.18532e-06 1.94411e-05
32 1 5.74574 1.46456 1.4749 4.88465e-06 1.67254e-06 -1.10005e-05 1.21518e-05
33 1 6.9767 2.84282 3.29923 -5.31097e-06 -1.94687e-05 -1.62314e-05 2.58978e-05
34 1 4.77164 11.7871 8.92193 1.44435e-05 -3.13873e-05 -2.60231e-05 4.32548e-05
35 1 5.12946 8.35486 2.15495 1.11893e-05 -3.49284e-05 1.32981e-06 3.6701e-05
36 1 7.26376 8.50328 6.15821 3.34674e-05 -4.80314e-06 -4.76936e-05 5.84621e-05
37 1 6.96811 8.90979 9.71315 -6.0067e-05 -2.04036e-05 1.91462e-05 6.6264e-05
38 1 9.44017 5.64507 6.93513 -4.72955e-06 2.32707e-05 6.37977e-06 2.45885e-05
39 1 10.6686 7.03933 8.76789 4.2416e-05 -3.50164e-05 -2.3976e-05 6.00009e-05
40 1 9.12767 6.03858 10.4814 -1.94441e-05 3.20645e-05 4.21803e-05 5.64392e-05
41 1 7.8897 7.66926 11.8653 3.02014e-05 -2.16818e-05 -3.42074e-05 5.0521e-05
42 1 0.193065 8.82946 1.31431 1.58481e-05 1.85048e-05 -1.86851e-05 3.07038e-05
43 1 10.0467 7.8503 3.01945 -7.1668e-06 2.2357e-05 1.28156e-05 2.67477e-05
44 1 10.9772 6.63514 5.19412 -2.54671e-06 2.31442e-05 1.54097e-05 2.79213e-05
45 1 11.2784 9.2468 4.85776 -3.77576e-05 -1.6869e-05 3.93645e-05 5.70943e-05
46 1 10.9578 9.61461 8.41841 9.77319e-06 -3.52908e-06 2.30999e-05 2.53294e-05
47 1 9.43194 8.66265 10.1509 -2.74754e-05 -2.97146e-05 1.82697e-05 4.44031e-05
48 1 0.498759 11.4452 0.956397 9.93002e-06 -2.86548e-05 6.55031e-06 3.1026e-05
49 1 10.3564 10.4685 2.70273 -7.05166e-06 2.29926e-05 5.08573e-06 2.45815e-05
50 1 10.0275 10.8278 6.24654 1.96628e-06 -1.4346e-05 2.95957e-05 3.29481e-05
51 1 9.77701 11.3392 9.68103 1.38793e-05 -2.35655e-05 2.43467e-05 3.6616e-05
52 1 9.73233 8.24693 6.58803 -1.91994e-05 -3.55744e-05 -1.99457e-05 4.50775e-05
53 1 8.48908 9.87677 7.97356 -3.65005e-05 2.43973e-05 4.48128e-06 4.41316e-05
54 1 9.74518 5.23362 3.38106 2.79754e-05 -2.70237e-05 -2.62497e-05 4.6925e-05
55 1 10.1084 4.74241 12.6029 -4.01025e-06 -1.71193e-06 -6.07072e-06 7.47439e-06
56 1 8.2765 10.3318 11.4751 -1.48603e-06 -3.28718e-05 9.25266e-06 3.41815e-05
57 1 7.90545 10.7089 2.23695 -7.7613e-06 -3.01655e-05 -3.43253e-07 3.11498e-05
58 1 7.56452 11.1066 5.81442 -9.93748e-06 -9.35803e-06 2.23203e-05 2.61633e-05
59 1 7.29307 11.5538 9.30906 -1.6536e-05 1.77708e-05 2.59913e-05 3.55639e-05
60 1 0.128625 11.9022 4.55701 1.39853e-05 -1.31097e-07 2.1102e-05 2.5316e-05
61 1 8.22213 1.20575 1.87718 4.39289e-05 -1.25015e-05 7.34996e-06 4.62608e-05
62 1 11.2855 6.19753 1.65587 1.12257e-05 1.46192e-05 -1.06977e-05 2.13114e-05
63 1 9.43239 2.60878 3.7326 1.06068e-05 -2.64915e-05 -2.4377e-05 3.75306e-05
64 1 10.1046 1.75014 9.36883 3.23172e-05 -3.25219e-05 1.65408e-06 4.58782e-05
65 1 10.9863 3.58172 2.02815 -1.06753e-05 -1.91301e-05 9.41378e-06 2.38441e-05
66 1 10.6787 4.0465 5.53468 -2.22897e-05 -1.9496e-06 -1.63633e-05 2.77198e-05
67 1 9.1774 2.99084 7.20821 2.24794e-05 -7.65771e-06 2.14302e-05 3.19878e-05
68 1 10.3641 4.42182 9.08584 1.85503e-05 -2.91697e-05 -2.45669e-05 4.24089e-05
69 1 8.91031 3.38412 10.8099 3.51189e-05 -2.09141e-06 1.13223e-05 3.69581e-05
70 1 7.9305 1.62596 5.46492 3.67478e-05 -2.47395e-06 -2.3891e-06 3.69084e-05
71 1 6.67996 9.33938 0.401458 -2.41643e-05 2.59611e-05 2.18228e-05 4.16429e-05
72 1 2.94458 8.18355 11.0239 9.2788e-06 -1.87086e-05 1.54263e-05 2.5963e-05
73 1 4.19379 6.54449 9.63125 2.4169e-06 -2.76342e-06 -1.02686e-05 1.09052e-05
74 1 4.18301 0.491221 3.22668 -1.04337e-05 2.05787e-05 -4.24144e-06 2.34592e-05
75 1 3.83236 0.895861 6.79597 2.86832e-05 -1.23422e-05 -1.46864e-05 3.45072e-05
76 1 6.0504 1.06831 10.7195 3.45848e-05 1.56859e-05 -2.03799e-05 4.30987e-05
77 1 0.814852 1.95897 0.624029 1.31401e-05 -8.7017e-06 1.36155e-05 2.0827e-05
78 1 2.03563 3.32613 2.47664 -3.15004e-05 -9.45811e-06 -3.24754e-05 4.6221e-05
79 1 0.45852 2.33701 4.23696 -6.71591e-06 6.60023e-06 -2.2887e-05 2.47484e-05
80 1 4.51596 0.0882243 12.4677 -3.03051e-06 3.67176e-05 2.6903e-05 4.56194e-05
81 1 2.64281 2.55191 8.17086 4.67444e-05 7.4291e-06 1.7998e-05 5.06376e-05
82 1 3.58551 4.32023 0.72188 1.70992e-05 -5.8917e-06 2.81868e-05 3.34901e-05
83 1 3.28227 4.74744 4.25706 5.95651e-06 1.65013e-05 4.37439e-05 4.71307e-05
84 1 1.74524 3.78408 5.98701 3.67595e-05 -1.76427e-05 -4.32352e-05 5.9429e-05
85 1 2.9552 5.15708 7.8339 1.30575e-06 3.04072e-05 -3.11877e-05 4.35772e-05
86 1 1.39846 4.16977 9.58552 6.07495e-06 7.77095e-06 -2.44424e-05 2.63576e-05
87 1 2.67233 5.5662 11.3698 5.15058e-05 1.80869e-05 -2.50953e-05 6.00813e-05
88 1 4.81022 2.6955 12.1242 -1.55521e-05 1.80196e-08 5.04964e-06 1.63514e-05
89 1 3.89688 6.95 0.362324 2.17168e-05 1.32866e-05 -3.12513e-05 4.03088e-05
90 1 0.750481 10.9931 10.316 1.13345e-05 -1.25247e-05 -5.94742e-05 6.18265e-05
91 1 1.40767 10.2542 3.14246 1.93906e-05 2.53637e-05 1.48206e-05 3.51989e-05
92 1 2.04832 0.335425 12.0505 1.83614e-05 2.21182e-05 1.00435e-05 3.04505e-05
93 1 1.71019 0.738723 2.79743 2.85819e-05 -1.73786e-05 1.23895e-05 3.56713e-05
94 1 1.30011 1.12126 6.4 -1.72149e-06 -1.57367e-05 -2.12981e-05 2.65371e-05
95 1 3.55981 1.32548 10.3114 -6.33031e-05 6.51858e-05 2.14949e-05 9.33729e-05
96 1 0.205146 2.8388 7.69915 -5.02238e-05 2.44516e-05 4.66484e-05 7.27762e-05
97 1 2.31667 2.95982 11.7094 3.74132e-06 -2.64131e-05 3.77285e-06 2.69422e-05
98 1 1.05357 10.6748 6.74603 -4.7592e-05 -1.46825e-05 1.9445e-06 4.98433e-05
99 1 1.12743 4.57054 0.286973 2.23015e-06 9.98388e-06 2.13558e-05 2.36796e-05
100 1 0.509163 5.42197 7.37557 -2.67657e-05 4.78697e-05 1.92619e-05 5.81286e-05
101 1 0.200375 5.82285 10.9253 -1.28228e-05 -8.8346e-06 -2.09241e-05 2.60824e-05
102 1 1.43023 7.18553 12.7602 -1.99025e-05 1.421e-05 3.65572e-05 4.39825e-05
103 1 1.11738 7.6203 3.46754 7.93005e-06 1.18588e-05 -1.9672e-06 1.44009e-05
104 1 0.802656 8.02399 7.023 -1.51157e-05 -2.35733e-05 1.86127e-05 3.36246e-05
105 1 1.69349 9.81817 12.4021 -4.04591e-05 1.14614e-05 2.14215e-05 4.7193e-05
106 1 0.817624 4.99419 3.81932 1.74985e-05 1.45673e-05 -3.10915e-05 3.85368e-05
107 1 2.35479 5.97002 2.09489 -3.74741e-05 1.66445e-05 3.00698e-05 5.08482e-05
108 1 3.5814 7.38314 3.90682 -2.48557e-05 1.15787e-05 4.41175e-05 5.19444e-05
109 1 2.04514 6.39489 5.6361 3.75769e-05 6.08633e-08 4.22572e-06 3.78138e-05
110 1 2.93622 2.10131 4.64915 2.66408e-05 2.27734e-05 -9.59053e-06 3.63365e-05
111 1 5.13066 2.29338 8.57911 -2.05535e-05 2.83943e-05 1.0232e-05 3.65154e-05
112 1 7.29727 2.44392 12.5462 -3.15027e-05 -8.10607e-06 -4.22119e-05 5.32914e-05
113 1 6.05586 4.07165 1.13809 -7.37772e-06 -1.85372e-05 2.46316e-05 3.16982e-05
114 1 5.7427 4.49649 4.68661 -4.7874e-07 -4.95986e-05 3.6837e-05 6.17836e-05
115 1 4.20069 3.52045 6.43163 9.95899e-06 5.28394e-06 -3.06474e-05 3.26553e-05
116 1 4.50495 3.08864 2.89038 2.27408e-05 -2.44727e-05 -2.28232e-05 4.04593e-05
117 1 5.43688 4.90297 8.2398 -4.42756e-06 1.23895e-05 9.86972e-06 1.64473e-05
118 1 5.13934 5.29782 11.7936 -3.11815e-06 1.89231e-05 1.02109e-05 2.17271e-05
119 1 6.36494 6.69009 0.777818 -3.99291e-05 1.43101e-05 5.03277e-06 4.27135e-05
120 1 4.81971 5.72598 2.52208 -2.12602e-06 -2.15461e-05 -7.08878e-06 2.27817e-05
121 1 6.04663 7.12814 4.32697 3.22108e-05 -3.46482e-05 -1.05913e-05 4.8479e-05
122 1 4.50439 6.13923 6.07858 -3.28741e-05 -2.58565e-05 -2.80635e-05 5.03669e-05
123 1 5.73225 7.52477 7.89841 2.49045e-05 -4.63621e-05 -2.41253e-05 5.7894e-05
124 1 3.89587 3.92413 9.97899 -1.2543e-05 2.53371e-05 -1.94779e-05 3.4332e-05
125 1 3.27518 1.71605 1.05575 4.95603e-05 2.76735e-05 -2.31808e-05 6.13139e-05
126 1 8.52153 0.818448 11.1359 6.56248e-06 -4.52258e-05 -4.29452e-07 4.57014e-05
127 1 6.36314 0.656582 7.1947 1.66691e-05 -2.89078e-05 3.18563e-06 3.35212e-05
128 1 3.26185 7.77861 7.47082 -3.93115e-06 2.56379e-07 -3.41481e-05 3.43745e-05
129 1 1.71856 6.82001 9.2181 2.37553e-06 1.53448e-05 1.28226e-06 1.55805e-05
130 1 0.447353 8.46561 10.6522 4.17448e-06 3.28028e-05 -3.2033e-05 4.60387e-05
131 1 4.19079 9.5809 12.8077 8.28321e-06 2.14655e-05 -6.07345e-05 6.49466e-05
132 1 2.65839 8.60621 1.74193 -1.4606e-06 2.41047e-05 -4.13673e-06 2.45007e-05
133 1 3.87638 9.99333 3.56426 -5.08102e-05 4.91326e-06 3.41336e-05 6.14078e-05
134 1 2.32861 9.03312 5.31284 -2.19906e-05 1.01231e-05 -1.03265e-05 2.63192e-05
135 1 3.52784 10.4086 7.14614 6.63608e-05 -1.18607e-05 -3.23534e-06 6.74901e-05
136 1 2.01198 9.4021 8.88109 -1.34796e-05 -6.35317e-06 3.50185e-05 3.80573e-05
137 1 3.25596 10.799 10.6646 -8.00288e-06 2.74513e-05 -2.26158e-05 3.64567e-05
138 1 2.96139 11.2122 1.39341 -5.19331e-06 4.95707e-05 4.45483e-05 6.68489e-05
139 1 2.6059 11.6251 4.97742 3.73204e-05 -1.28445e-05 -4.59293e-05 6.05582e-05
140 1 2.21512 12.049 8.55629 -2.01427e-05 2.66456e-05 4.49449e-06 3.37034e-05
141 1 6.99469 11.9329 0.0691918 -4.81378e-06 -3.68014e-07 -4.69705e-07 4.85062e-06
142 1 6.65728 0.242531 3.64247 -4.03439e-05 2.73061e-06 -1.73144e-06 4.04733e-05
143 1 10.6584 0.972538 2.33121 -2.10503e-05 2.77947e-05 1.95583e-05 3.99773e-05
144 1 10.3534 7.39577 12.3234 -3.10744e-05 4.6475e-06 6.85572e-05 7.54143e-05
