ITEM: TIMESTEP
0
ITEM: NUMBER OF ATOMS
137
ITEM: BOX BOUNDS pp pp pp
0.0000000000000000e+00 1.1396901000000000e+01
0.0000000000000000e+00 1.2680864000000000e+01
0.0000000000000000e+00 1.2228524999999999e+01
ITEM: ATOMS id type x y z fx fy fz v_fmag
1 1 0.474972 3.76158 7.67546 2.48856e-05 -3.36408e-05 2.19131e-07 4.18455e-05
2 1 8.08588 11.859 0.286262 6.39349e-06 -2.32371e-05 -3.10011e-05 3.92671e-05
3 1 8.94906 10.51 10.3379 4.05922e-05 1.37053e-05 1.79592e-05 4.64553e-05
4 1 7.32511 9.41486 8.60174 7.53904e-05 -3.02185e-05 -1.3466e-05 8.23299e-05
5 1 8.42001 10.6068 6.45956 -2.09152e-06 8.15112e-06 -9.39925e-06 1.26159e-05
6 1 6.79713 9.50383 4.68154 -8.55806e-06 3.85314e-06 -2.47973e-07 9.38875e-06
7 1 7.04367 10.6334 2.38542 -4.86353e-06 4.66619e-06 6.15671e-06 9.12865e-06
8 1 7.95017 9.28335 0.229239 3.88763e-06 -3.54718e-06 -3.80965e-05 3.84583e-05
9 1 8.75456 7.94026 10.2961 -1.22303e-05 2.35065e-05 -4.87688e-05 5.55025e-05
10 1 7.13955 6.86825 8.56729 -1.0799e-05 -8.88819e-07 -1.91658e-05 2.20167e-05
11 1 8.11178 8.06021 6.39951 -7.07153e-05 4.05223e-05 2.58477e-06 8.15437e-05
12 1 6.41486 6.96579 4.65518 5.14951e-05 4.44311e-05 1.65354e-05 6.99949e-05
13 1 7.40292 8.1048 2.49277 -5.8863e-06 -1.1135e-05 -1.71037e-05 2.12409e-05
14 1 7.7918 6.75965 0.248941 -6.76274e-05 9.68924e-06 -1.96085e-05 7.10763e-05
15 1 8.57322 5.38661 10.2685 3.64138e-06 7.09735e-06 -3.54116e-05 3.62989e-05
16 1 6.10916 11.9728 4.55996 1.66001e-05 4.90595e-05 -1.52644e-05 5.39945e-05
17 1 6.97279 4.31191 8.52711 -3.0552e-05 -3.54172e-05 1.48439e-05 4.90728e-05
18 1 6.4147 4.43192 4.70422 -1.61982e-05 3.94711e-05 -1.65115e-05 4.5749e-05
19 1 9.12722 5.28345 1.92277 -1.50881e-05 -7.47229e-06 -3.06024e-05 3.49284e-05
20 1 7.50221 4.20013 0.178527 -6.97952e-06 -3.15727e-05 -2.32085e-05 3.98018e-05
21 1 8.33951 2.82431 10.2135 -2.6004e-05 -5.14061e-06 -2.25644e-05 3.48108e-05
22 1 6.75735 1.73243 8.47417 -9.86542e-06 1.59983e-05 -1.6914e-05 2.52855e-05
23 1 7.84241 2.95106 6.36461 -3.37389e-05 2.35053e-05 2.65997e-06 4.12054e-05
24 1 6.28206 1.87155 4.62705 -3.35544e-05 2.0766e-05 3.24449e-05 5.10862e-05
25 1 7.35555 3.11666 2.52115 2.85932e-05 2.28934e-05 9.39096e-06 3.78136e-05
26 1 5.81734 2.02758 0.795078 -1.44846e-05 -7.98952e-06 -6.84943e-06 1.7904e-05
27 1 6.71643 0.670994 10.8488 5.1255e-05 -4.06405e-05 3.10048e-05 7.2388e-05
28 1 7.65166 0.371168 6.29438 -2.47307e-06 2.38527e-05 -1.31466e-06 2.40165e-05
29 1 7.18707 0.526778 2.4597 -1.4609e-05 2.99202e-06 -8.01306e-06 1.69288e-05
30 1 5.13595 12.2566 9.10887 5.32987e-05 -1.36769e-05 1.40767e-05 5.67976e-05
31 1 3.64073 12.2429 5.00186 8.06602e-06 -3.25284e-05 -3.46054e-05 4.81735e-05
32 1 7.99325 5.5274 6.39605 1.08277e-05 -1.4902e-05 -1.07119e-05 2.13085e-05
33 1 7.58354 11.9844 8.65861 1.22831e-05 -1.95539e-05 2.59377e-05 3.47274e-05
34 1 9.64965 0.246963 2.03793 8.79111e-05 5.36768e-06 2.61657e-05 9.18793e-05
35 1 10.1106 0.114027 5.84998 2.47723e-05 3.23923e-05 -1.17083e-05 4.24266e-05
36 1 11.2031 1.34578 3.75604 -3.7433e-05 8.67119e-06 2.63814e-05 4.6609e-05
37 1 10.7421 1.47549 12.1672 -1.47705e-05 -6.36087e-06 -8.99279e-07 1.61071e-05
38 1 10.0357 11.7234 8.22224 -1.8557e-06 -1.32262e-05 5.37106e-06 1.43952e-05
39 1 8.57635 11.6928 4.11965 2.26433e-05 -1.63158e-05 4.86212e-05 5.6062e-05
40 1 10.5451 11.5816 12.092 5.6531e-05 1.35708e-05 -8.69673e-06 5.87839e-05
41 1 10.3797 9.04268 11.9681 9.59283e-06 -2.48242e-05 6.11857e-06 2.73075e-05
42 1 0.00739141 10.2454 9.90579 -2.49728e-05 -2.58127e-06 1.16184e-05 2.76639e-05
43 1 9.76537 9.15318 8.18015 -5.18677e-05 2.56038e-05 1.63021e-05 6.00964e-05
44 1 10.8649 10.3644 6.07428 6.08951e-06 -4.52246e-06 -1.2915e-05 1.49777e-05
45 1 9.28253 9.23109 4.23521 5.21458e-07 -8.86746e-06 -1.08469e-05 1.402e-05
46 1 11.0459 11.3842 3.69571 -2.19882e-05 1.66941e-05 2.15015e-05 3.49926e-05
47 1 9.49145 10.3636 1.92499 2.52852e-05 -2.72341e-05 3.14674e-05 4.86953e-05
48 1 11.2101 7.67764 9.85777 2.30289e-05 -5.64564e-06 -2.84883e-05 3.70646e-05
49 1 9.58043 6.59623 8.14498 -2.73417e-06 1.22457e-05 1.59083e-05 2.0261e-05
50 1 10.5391 7.80826 6.05574 6.30418e-05 -3.97467e-05 -1.63321e-05 7.62942e-05
51 1 8.89337 6.68284 4.18668 8.47946e-07 3.85362e-06 -2.39837e-06 4.61753e-06
52 1 9.79676 7.79291 1.89579 -2.80447e-05 -1.39998e-05 3.29704e-05 4.54923e-05
53 1 9.17383 0.399024 10.4109 -9.18428e-06 -2.83664e-06 3.97542e-05 4.08998e-05
54 1 8.28227 1.75682 0.363366 2.15219e-05 3.27584e-05 -1.46543e-05 4.18456e-05
55 1 9.82994 2.83682 2.10366 -1.48608e-06 4.8116e-06 7.52168e-06 9.05183e-06
56 1 8.73912 1.59436 4.19092 6.74535e-06 1.61332e-05 2.88393e-05 3.37267e-05
57 1 10.3059 2.69847 5.91479 -8.70969e-06 3.87154e-06 -1.54642e-05 1.81656e-05
58 1 9.21316 1.46783 8.0298 4.37797e-05 3.58409e-05 1.10934e-05 5.76567e-05
59 1 5.62809 12.1272 0.72917 3.30048e-05 -2.4797e-05 1.90952e-05 4.54844e-05
60 1 10.7885 2.54512 9.78505 1.63542e-07 -5.17906e-06 9.07663e-06 1.04515e-05
61 1 0.182969 5.0607 1.45638 -4.18117e-06 6.75612e-05 -1.95457e-05 7.04558e-05
62 1 8.87022 4.14878 4.2671 -2.03942e-05 -1.07e-05 -4.54467e-06 2.34748e-05
63 1 10.4509 5.2694 5.97402 -1.99428e-05 2.98913e-06 -5.77488e-06 2.09761e-05
64 1 9.4227 4.04301 8.08402 -6.24476e-05 -1.24734e-05 2.96631e-06 6.37502e-05
65 1 11.0219 5.10877 9.83363 -1.71826e-05 -5.52918e-06 -1.89376e-05 2.61619e-05
66 1 10.2134 6.46552 11.9551 -5.3874e-06 -4.03227e-05 1.96202e-06 4.07283e-05
67 1 9.94489 3.90904 11.97 -2.84895e-05 4.55334e-07 2.08332e-05 3.52971e-05
68 1 0.233271 0.124806 9.98433 3.53443e-05 -2.61365e-05 3.4294e-05 5.57531e-05
69 1 6.50406 10.7726 10.7853 -2.30108e-05 -4.01775e-05 4.89326e-06 4.65583e-05
70 1 5.97585 10.8814 6.90343 -2.70857e-05 5.48225e-05 -1.11591e-05 6.21584e-05
71 1 2.26503 7.40888 9.45091 -4.76329e-05 1.49919e-05 4.3392e-05 6.61553e-05
72 1 3.25769 8.61259 7.3112 -3.98382e-05 3.05764e-05 3.08525e-05 5.89395e-05
73 1 1.57474 7.52424 5.63217 -2.70587e-05 -1.12233e-05 2.07635e-06 2.93674e-05
74 1 2.50538 8.68489 3.44502 -4.53424e-05 1.03359e-05 2.47009e-05 5.26583e-05
75 1 2.82262 7.30936 1.16597 -2.1637e-05 2.07937e-05 -4.86911e-06 3.04014e-05
76 1 0.995551 3.63946 11.5367 5.3028e-06 -8.87436e-06 1.15916e-05 1.55319e-05
77 1 3.70158 5.94145 11.1734 -9.52171e-07 -9.96328e-08 -1.26419e-05 1.26781e-05
78 1 2.07946 4.8482 9.41435 3.37492e-05 2.36937e-05 -8.01048e-06 4.20068e-05
79 1 3.09279 6.06459 7.30013 -6.13478e-07 -1.3139e-05 2.81199e-06 1.34505e-05
80 1 1.51874 4.96482 5.61079 5.05164e-06 -4.29314e-05 -7.58573e-06 4.38881e-05
81 1 4.24627 5.87952 2.85077 -3.75678e-06 1.06991e-05 8.17004e-06 1.39762e-05
82 1 2.62603 4.74443 1.07481 -6.33542e-05 -2.62223e-05 -3.81876e-05 7.84835e-05
83 1 3.44575 3.37606 11.1056 -4.25215e-05 5.80346e-06 -1.78022e-05 4.64616e-05
84 1 0.27055 1.19554 7.59761 -3.90578e-05 -2.76504e-05 3.1905e-06 4.79608e-05
85 1 3.87211 8.47712 11.2035 6.58535e-06 1.47428e-05 2.22244e-06 1.62989e-05
86 1 2.93281 3.48876 7.25056 1.48612e-06 -3.343e-05 -5.009e-06 3.38358e-05
87 1 2.42538 3.65786 3.40548 -2.18105e-05 1.29639e-05 1.4379e-05 2.91637e-05
88 1 1.79972 1.2018 11.7345 4.13012e-06 7.0621e-06 1.97347e-07 8.18353e-06
89 1 1.84735 2.27274 9.35764 -1.44078e-05 -3.5506e-05 1.73696e-05 4.20709e-05
90 1 2.72908 0.917431 7.17091 -9.01874e-06 3.15217e-05 -6.84837e-06 3.34941e-05
91 1 0.890851 2.58198 1.66937 -8.14769e-06 3.58035e-06 -3.52161e-06 9.57108e-06
92 1 1.09679 11.4566 7.7992 -7.6912e-06 1.19556e-05 -5.2913e-06 1.51687e-05
93 1 1.17208 12.5312 5.42014 -6.50035e-06 2.16544e-05 -1.91523e-05 2.96307e-05
94 1 0.706266 12.6351 1.60626 2.43915e-05 4.29435e-05 -1.2056e-05 5.08373e-05
95 1 1.42879 8.7425 11.6088 3.91093e-05 8.52428e-06 -3.43655e-05 5.27559e-05
96 1 0.821954 8.89146 7.76518 -2.47478e-05 -2.54873e-05 7.4583e-07 3.55333e-05
97 1 0.571015 10.0087 1.55167 2.25591e-05 2.0007e-05 1.45444e-05 3.34773e-05
98 1 1.26414 6.19668 11.5595 -1.54964e-05 -3.63973e-05 -7.41292e-06 4.02474e-05
99 1 0.636299 6.32463 7.73932 -5.5007e-06 3.54062e-06 1.8766e-05 1.98735e-05
100 1 1.79159 6.13331 3.33622 -1.64607e-05 -6.25184e-06 2.71567e-05 3.23655e-05
101 1 1.36136 2.42373 5.48763 3.55187e-05 -1.73497e-06 -4.64034e-06 3.58625e-05
102 1 3.05253 9.83092 1.1198 2.72266e-05 -1.64476e-05 6.50961e-06 3.24683e-05
103 1 2.12491 11.1986 3.25027 6.04088e-05 2.69318e-05 1.41729e-05 6.76418e-05
104 1 1.91006 10.0932 5.61885 -3.72072e-06 -1.20402e-06 7.88874e-06 8.80486e-06
105 1 4.33704 9.77359 5.13882 -1.57144e-05 4.66817e-05 -1.37651e-05 5.11429e-05
106 1 4.58133 10.898 2.83327 2.80166e-05 -1.65003e-05 3.68503e-05 4.9144e-05
107 1 5.50387 9.55902 0.674012 9.65657e-06 2.36776e-05 7.4419e-06 2.6632e-05
108 1 6.31717 8.21236 10.7519 1.91027e-05 -1.45456e-05 -3.34252e-06 2.42417e-05
109 1 4.70439 7.13969 9.02102 3.92663e-05 1.58665e-05 1.23525e-06 4.23688e-05
110 1 5.68108 8.32772 6.84925 9.32041e-05 -2.80818e-05 -4.61419e-05 0.000107725
111 1 3.96422 7.23105 5.09983 -1.2469e-05 1.21173e-05 -1.35031e-05 2.20145e-05
112 1 4.93873 8.36872 2.92599 -1.06932e-05 -1.1781e-05 -6.30725e-06 1.71148e-05
113 1 5.32572 7.03483 0.701894 -3.94366e-05 6.69302e-06 -2.16449e-05 4.54813e-05
114 1 6.13959 5.67266 10.7243 -5.66044e-05 -1.30585e-05 -1.31202e-05 5.95543e-05
115 1 4.52731 4.58387 8.98004 -1.47789e-05 3.70859e-05 2.03761e-05 4.48214e-05
116 1 5.53724 5.78956 6.8461 -1.17493e-05 1.94164e-06 -1.033e-05 1.57647e-05
117 1 3.95625 4.70225 5.14153 -3.75224e-05 1.73307e-05 -6.28567e-06 4.18066e-05
118 1 6.71049 5.61248 2.41602 -2.36177e-05 6.78289e-06 -2.26514e-05 3.34199e-05
119 1 5.06814 4.47973 0.639445 -2.72483e-05 -4.51031e-06 -2.6056e-05 3.79701e-05
120 1 5.89286 3.10319 10.6585 1.85402e-05 -3.59056e-05 -2.22963e-05 4.61528e-05
121 1 4.30293 2.00347 8.91798 1.28874e-05 3.89634e-06 2.61822e-07 1.34661e-05
122 1 3.53919 11.1662 7.36198 3.77218e-05 -1.9647e-05 3.3515e-06 4.26635e-05
123 1 2.45228 9.96061 9.50012 4.18615e-05 -2.89407e-05 -1.41557e-05 5.28236e-05
124 1 4.05269 11.0397 11.2318 3.25368e-05 8.79723e-07 -3.29039e-05 4.62827e-05
125 1 3.17183 12.3987 1.16404 -1.03194e-05 -3.1491e-05 1.06474e-05 3.48072e-05
126 1 2.26518 1.07749 3.32474 2.09873e-05 -3.00433e-05 -2.11499e-06 3.67089e-05
127 1 2.68543 12.5284 9.55665 2.67027e-05 -2.71591e-05 1.62202e-05 4.13974e-05
128 1 4.89089 9.68644 9.05699 -4.98425e-05 -1.3698e-05 3.58785e-05 6.2922e-05
129 1 1.59547 11.294 11.6808 1.57836e-05 1.97199e-05 2.83533e-06 2.54173e-05
130 1 5.19158 0.64329 6.73575 2.62492e-05 -1.79634e-06 -1.24584e-05 2.91112e-05
131 1 4.25921 0.941465 11.2897 3.16082e-05 3.64499e-05 -8.0729e-06 4.89167e-05
132 1 3.35562 2.29794 1.2346 -6.4035e-06 -1.62975e-07 1.27962e-05 1.43099e-05
133 1 4.88909 3.38597 2.96648 2.62315e-05 -7.53704e-06 4.14008e-05 4.95875e-05
134 1 3.82163 2.14085 5.06581 -1.08193e-05 -8.79793e-06 2.98693e-05 3.29641e-05
135 1 5.38486 3.22004 6.80595 -4.73279e-06 -2.18233e-06 -1.8622e-05 1.93375e-05
136 1 4.7255 0.796282 2.89863 1.52975e-05 -7.05185e-06 2.79374e-05 3.26227e-05
137 1 11.3539 3.9932 3.81406 -1.45013e-05 -1.07205e-05 -1.20487e-05 2.16885e-05
