ITEM: TIMESTEP
0
ITEM: NUMBER OF ATOMS
149
ITEM: BOX BOUNDS pp pp pp
0.0000000000000000e+00 1.1400361000000000e+01
0.0000000000000000e+00 1.2098903999999999e+01
0.0000000000000000e+00 1.2816801000000000e+01
ITEM: ATOMS id type x y z fx fy fz v_fmag
1 1 1.64608 11.1026 1.46515 -1.91258e-05 9.10316e-06 -3.68982e-05 4.25457e-05
2 1 5.72571 2.78995 0.0894553 -1.96296e-05 1.44327e-05 3.80188e-05 4.51559e-05
3 1 6.52141 5.32319 0.415804 7.73014e-06 1.02952e-05 3.833e-05 4.04343e-05
4 1 8.71146 7.01857 2.74852 3.19458e-06 -7.17546e-07 5.10378e-06 6.06373e-06
5 1 5.24547 5.2901 4.70599 -1.42675e-05 -8.51305e-05 -5.45916e-06 8.64902e-05
6 1 7.41011 6.90268 7.0801 2.54722e-05 2.05616e-05 2.7577e-05 4.2803e-05
7 1 3.93842 5.20234 8.99768 1.8786e-05 3.22401e-05 3.94837e-06 3.75224e-05
8 1 7.00151 2.611 10.6853 -9.28393e-06 3.90174e-05 8.12895e-06 4.09222e-05
9 1 7.7691 5.05161 11.0412 -3.35468e-05 3.14516e-05 1.58995e-05 4.86558e-05
10 1 7.02937 8.89165 3.15597 6.47147e-06 -1.37493e-05 1.93578e-05 2.46099e-05
11 1 6.00968 7.65468 5.09407 6.45561e-05 3.83209e-05 7.00374e-06 7.53992e-05
12 1 9.20582 10.4992 5.56713 2.99392e-05 2.7218e-07 3.1992e-06 3.01109e-05
13 1 7.16236 8.04059 9.40469 5.77528e-05 8.0536e-05 6.4029e-06 9.93098e-05
14 1 9.56886 8.4996 9.43635 -3.12363e-05 -1.46172e-05 1.37778e-05 3.71375e-05
15 1 5.52607 9.75182 1.21576 1.40094e-05 -5.296e-06 -1.59895e-05 2.19084e-05
16 1 7.23172 7.84148 0.827114 -5.53247e-06 2.09514e-05 5.4397e-06 2.23419e-05
17 1 5.59751 3.31376 8.67942 6.54948e-06 4.95371e-05 -7.73686e-06 5.05637e-05
18 1 9.0772 5.00881 6.75055 -6.74713e-06 -3.93231e-05 -6.74633e-06 4.04641e-05
19 1 6.93072 3.42674 4.36336 -3.57916e-05 6.4541e-06 -2.14678e-05 4.22323e-05
20 1 4.34021 9.5446 5.44053 4.50346e-05 -1.4165e-05 -1.65425e-05 5.00242e-05
21 1 6.50373 11.1674 7.86667 -5.4333e-05 -1.01073e-05 3.86645e-05 6.74476e-05
22 1 5.50189 9.91856 9.76327 2.56021e-05 8.13555e-05 -3.23381e-05 9.12137e-05
23 1 8.35021 8.67111 11.6204 4.07658e-05 7.36652e-06 -1.38878e-06 4.14494e-05
24 1 6.16725 0.0158265 1.64153 2.17037e-06 4.92085e-05 -1.31144e-05 5.09723e-05
25 1 5.11068 11.921 5.87036 1.59895e-05 -5.36084e-06 -4.98124e-06 1.75845e-05
26 1 7.90651 10.4069 9.85431 -3.17462e-05 -5.24966e-05 1.41589e-06 6.13655e-05
27 1 6.58772 10.5371 11.9969 3.12371e-05 2.15952e-05 4.36935e-05 5.78898e-05
28 1 9.60975 2.72544 2.09606 5.60472e-06 -1.18758e-05 2.85362e-05 3.14128e-05
29 1 6.14894 1.0747 3.97089 1.50752e-05 3.66055e-05 1.70501e-05 4.31037e-05
30 1 8.31545 2.64852 6.36815 -1.74328e-05 2.13512e-05 1.15199e-05 2.98745e-05
31 1 4.84193 0.946012 8.24486 -3.87804e-05 -3.18272e-06 -4.16767e-05 5.70176e-05
32 1 8.6503 0.671958 10.3007 1.75431e-05 3.43781e-05 -3.98035e-05 5.54431e-05
33 1 7.35068 0.884412 12.4782 -8.84127e-06 -2.26016e-05 -1.65557e-05 2.93784e-05
34 1 8.17312 3.40068 0.0665115 -1.88588e-05 1.33204e-05 -7.91521e-07 2.31023e-05
35 1 8.78684 0.387274 1.67803 -1.65363e-05 2.80922e-05 2.31582e-05 3.99865e-05
36 1 6.7733 10.0257 5.51078 -4.74855e-05 -2.80609e-05 1.64931e-05 5.75701e-05
37 1 0.250234 10.9728 5.67409 -3.35177e-05 -5.71701e-05 2.23817e-05 6.99486e-05
38 1 8.17123 9.27326 7.47989 -4.72967e-05 -4.30172e-05 6.51648e-05 9.12902e-05
39 1 9.46873 9.39471 3.20377 5.31852e-05 -1.93343e-05 1.04232e-05 5.75424e-05
40 1 8.44549 8.13695 5.12983 -5.13538e-05 -6.13724e-05 2.54197e-05 8.3964e-05
41 1 10.8787 8.61788 5.22281 4.54883e-05 3.28654e-05 -2.19316e-05 6.02521e-05
42 1 9.84436 7.3728 7.13264 7.51816e-06 -7.03353e-05 2.08225e-05 7.37371e-05
43 1 10.6722 7.58692 11.4354 1.16175e-05 -8.31399e-05 4.5738e-06 8.40722e-05
44 1 7.99314 10.197 1.24365 6.06639e-06 4.95626e-05 1.26461e-05 5.1509e-05
45 1 10.5492 10.6913 1.32467 -3.74119e-06 3.66798e-05 2.75662e-05 4.60358e-05
46 1 7.77998 11.273 3.57846 4.7558e-05 -4.1638e-06 1.32243e-05 4.95377e-05
47 1 10.6128 9.73643 7.56191 1.89349e-05 2.16393e-05 2.03138e-05 3.52057e-05
48 1 10.2375 11.7381 3.67653 -2.32607e-05 -3.51606e-05 1.98655e-06 4.22051e-05
49 1 11.0819 1.11749 10.3612 -2.5155e-05 1.71155e-05 -3.23312e-05 4.43962e-05
50 1 9.97989 0.749799 6.02581 -3.40935e-05 -5.34924e-06 -3.09309e-05 4.63433e-05
51 1 10.7528 3.10486 6.44785 -8.63264e-06 3.42725e-05 -4.86389e-05 6.01238e-05
52 1 10.6031 3.96341 0.191788 -2.91521e-05 8.06848e-06 -2.7006e-05 4.05496e-05
53 1 10.3707 5.11935 2.47465 1.39175e-05 -1.77031e-05 7.3778e-07 2.25308e-05
54 1 9.74723 8.36933 0.855324 2.14376e-05 -1.1533e-06 2.80157e-05 3.52956e-05
55 1 5.3755 10.7741 3.54754 -2.38809e-05 -6.26783e-06 2.73745e-05 3.68639e-05
56 1 10.1918 5.31175 11.0261 -4.53252e-06 4.75027e-05 1.49178e-05 4.99959e-05
57 1 10.1099 6.24783 4.80602 -7.33939e-06 -3.22192e-05 2.4479e-06 3.31351e-05
58 1 10.306 10.8503 9.89066 2.6382e-05 1.45598e-05 2.14663e-05 3.69973e-05
59 1 7.54156 0.290616 5.94526 2.09245e-06 -3.29642e-06 -1.605e-05 1.65181e-05
60 1 8.93178 11.6265 7.92652 3.06795e-05 9.2811e-06 -6.20436e-07 3.20587e-05
61 1 9.16075 11.1461 12.106 5.94584e-06 1.71968e-05 4.00477e-05 4.39875e-05
62 1 8.58248 1.52012 4.02893 -5.10743e-05 -1.81964e-05 -2.46172e-06 5.42747e-05
63 1 11.0161 1.98807 4.13288 5.001e-07 8.86021e-06 -1.6773e-05 1.8976e-05
64 1 7.26755 1.42619 8.31949 8.68075e-06 1.1771e-05 -1.93611e-05 2.42645e-05
65 1 9.87108 1.48739 12.5771 -1.80613e-05 2.70454e-05 2.32685e-06 3.26049e-05
66 1 7.96557 4.63546 2.35658 1.66319e-05 2.47704e-05 -3.70023e-06 3.00647e-05
67 1 9.35336 3.88191 4.41568 4.56575e-05 8.04521e-06 1.16061e-05 4.77916e-05
68 1 8.03574 3.79205 8.71342 -1.0333e-05 -9.08488e-06 -2.56658e-05 2.91212e-05
69 1 9.70488 1.87439 8.36192 -1.42242e-05 -2.26723e-05 1.61343e-06 2.68135e-05
70 1 9.42511 3.02114 10.6953 -5.71094e-06 -3.71171e-05 -1.12001e-05 3.91885e-05
71 1 8.93652 6.00079 0.319951 -2.67469e-06 -7.38441e-06 -3.91864e-05 3.99657e-05
72 1 7.68658 5.77675 4.72942 4.6381e-05 2.14027e-05 2.78642e-05 5.81866e-05
73 1 6.36527 5.6874 9.04645 -2.38637e-05 -1.48294e-05 1.19951e-06 2.81216e-05
74 1 8.81354 6.1543 9.08046 4.48184e-05 2.62452e-05 -7.56661e-06 5.24858e-05
75 1 3.19915 9.17621 1.09307 -3.20579e-05 3.9619e-05 -3.08266e-05 5.95622e-05
76 1 4.72446 7.57577 9.38773 -6.82162e-05 -1.4566e-05 4.17381e-06 6.98788e-05
77 1 1.29792 0.113312 3.7881 3.435e-06 1.547e-05 -2.39729e-05 2.87371e-05
78 1 3.44973 1.69473 6.23955 -7.71873e-06 1.59316e-05 -4.66281e-05 4.98756e-05
79 1 11.3753 12.0862 8.02474 -4.29401e-05 -6.67305e-05 -4.33165e-05 9.04054e-05
80 1 2.14788 1.47517 10.6691 2.24087e-05 4.10038e-05 -1.26689e-05 4.84145e-05
81 1 0.928867 2.17604 12.7845 -5.78896e-07 2.1684e-05 1.91388e-05 2.89279e-05
82 1 3.1053 3.61864 2.28339 1.13337e-06 -4.9211e-05 -8.30018e-06 4.99189e-05
83 1 2.43267 1.27018 1.86045 -8.78463e-06 -9.02575e-06 8.90689e-07 1.26264e-05
84 1 2.05362 2.44737 4.22601 -9.35937e-06 -3.36456e-05 -1.5597e-05 3.82478e-05
85 1 0.758724 2.33133 8.49738 3.65696e-05 4.91797e-05 2.07541e-05 6.47048e-05
86 1 3.35404 2.4157 12.7754 -1.21662e-05 -1.71045e-05 2.77196e-05 3.477e-05
87 1 1.68404 4.45439 0.3064 3.45135e-05 7.03851e-06 -2.70539e-05 4.44144e-05
88 1 3.84999 6.0077 2.68938 1.9367e-06 -2.57548e-05 -1.40623e-05 2.94076e-05
89 1 0.379035 4.35092 4.53252 -7.96609e-06 -5.07416e-05 1.57639e-05 5.37278e-05
90 1 2.54043 5.94952 6.95732 2.03419e-05 1.16079e-05 -3.25331e-05 4.00867e-05
91 1 4.2045 4.05443 6.67068 2.93606e-05 -1.07981e-05 3.68549e-06 3.14996e-05
92 1 11.3032 9.80229 11.8595 -1.38748e-05 4.29375e-05 4.30356e-05 6.23555e-05
93 1 1.32558 11.2575 10.0398 -2.49021e-05 2.75585e-05 -2.33705e-06 3.72162e-05
94 1 1.02033 1.221 6.14135 -1.20479e-05 4.44386e-06 -1.53621e-05 2.00223e-05
95 1 11.3086 0.887732 1.82064 -4.39091e-05 7.27613e-06 -1.98841e-05 4.87476e-05
96 1 0.473589 12.0164 12.3231 -4.92103e-05 -6.01313e-05 -3.64543e-05 8.58274e-05
97 1 0.662642 3.22285 2.239 1.45308e-05 -4.37967e-05 1.22407e-05 4.77402e-05
98 1 1.78307 3.57545 6.57043 -2.01681e-05 -6.69216e-05 8.53375e-06 7.04137e-05
99 1 0.485951 3.48936 10.7883 -2.1136e-05 3.42554e-05 -4.09375e-05 5.74112e-05
100 1 1.41726 5.57657 2.61884 6.27508e-05 1.74276e-05 1.62063e-05 6.71121e-05
101 1 0.111698 5.47379 6.83288 -6.07976e-06 1.62669e-07 3.09245e-05 3.15169e-05
102 1 0.00667088 6.3584 0.59709 1.94771e-05 -2.33377e-05 2.69107e-05 4.05979e-05
103 1 11.1386 7.49381 2.90073 4.90871e-05 1.10122e-05 -5.4343e-06 5.05998e-05
104 1 0.87982 7.84611 7.24009 4.96704e-05 3.2118e-05 -2.20076e-05 6.31114e-05
105 1 1.22288 5.92701 11.2064 -1.89227e-05 1.66845e-05 -1.17987e-06 2.52553e-05
106 1 0.524361 9.86494 3.32815 4.34482e-06 -3.67711e-05 3.1073e-05 4.83376e-05
107 1 1.64604 10.2024 7.68621 -6.95009e-05 -5.53875e-05 -2.7404e-06 8.89138e-05
108 1 0.589691 8.9135 9.58213 5.22494e-05 1.70389e-06 2.19157e-05 5.66851e-05
109 1 1.93992 8.31761 11.6377 4.05784e-06 2.19026e-05 1.58764e-05 2.73542e-05
110 1 10.4795 4.21977 8.74301 4.24012e-05 -2.35849e-06 1.89464e-05 4.65015e-05
111 1 2.90691 4.00579 10.9345 -2.3713e-05 -2.82786e-06 2.27926e-05 3.30122e-05
112 1 2.44802 6.79655 0.698848 -1.71286e-05 -2.60091e-05 -3.27694e-05 4.52072e-05
113 1 2.18611 7.94744 3.0214 -4.67558e-06 -6.26087e-05 2.11626e-05 6.62538e-05
114 1 5.51205 4.08527 2.35357 -9.38855e-06 -4.0026e-05 -5.89645e-06 4.1533e-05
115 1 4.48645 2.93497 4.31704 1.62339e-05 -4.75951e-06 -1.04116e-05 1.98644e-05
116 1 6.6418 4.54281 6.7086 -3.32268e-05 -3.05506e-05 1.27666e-05 4.69079e-05
117 1 3.1646 2.80182 8.65022 -2.6958e-05 -2.30457e-05 1.05339e-05 3.69974e-05
118 1 4.58808 2.06654 10.6373 -2.24336e-05 5.30616e-05 -3.2267e-05 6.603e-05
119 1 4.10921 4.8381 0.361134 -2.57443e-05 2.34928e-06 -2.37445e-05 3.51012e-05
120 1 6.27945 6.49005 2.73988 4.85922e-05 1.4156e-05 5.98134e-06 5.09645e-05
121 1 2.81078 4.80831 4.63145 1.45827e-05 1.31442e-05 -2.93636e-07 1.96345e-05
122 1 4.97099 6.42807 7.0448 -4.49254e-06 -2.72998e-05 3.25209e-05 4.26974e-05
123 1 1.5124 4.71415 8.87952 -3.67789e-05 -3.40978e-05 3.34881e-05 6.03059e-05
124 1 5.35305 4.51542 11.031 -1.76094e-05 2.03862e-05 -2.11866e-05 3.42719e-05
125 1 4.85862 7.2582 0.760824 9.92281e-06 6.12331e-06 -1.31811e-06 1.17343e-05
126 1 4.61318 8.38289 3.09923 1.96846e-05 1.91633e-05 -3.44142e-05 4.40347e-05
127 1 3.57426 7.17672 5.03042 -5.25558e-05 -5.86437e-05 -1.92456e-05 8.10653e-05
128 1 5.73981 8.79285 7.43367 3.57264e-05 1.71506e-05 1.89908e-05 4.39451e-05
129 1 4.69141 0.207532 12.4637 1.62007e-05 -1.41152e-05 -2.01296e-05 2.94432e-05
130 1 6.23309 7.0451 11.4273 -2.42226e-05 2.64597e-05 1.88996e-05 4.05468e-05
131 1 6.22394 0.203406 10.2725 9.01183e-07 2.04192e-05 -1.08852e-06 2.04681e-05
132 1 5.88345 2.18395 6.31608 -4.98028e-05 -1.03489e-05 -4.6964e-05 6.92318e-05
133 1 1.14238 6.72005 4.92705 4.71356e-05 4.19589e-06 -1.48295e-05 4.95911e-05
134 1 3.30833 8.31724 7.36566 -1.87225e-05 -2.59832e-05 -3.84542e-05 5.00438e-05
135 1 2.28601 7.08243 9.285 4.76776e-05 3.94722e-05 9.26213e-06 6.25859e-05
136 1 3.71349 6.46779 11.3387 9.11734e-06 8.20223e-06 6.15447e-06 1.37215e-05
137 1 0.79906 8.73701 1.03614 -4.42859e-05 -2.68876e-05 6.30538e-06 5.21914e-05
138 1 2.98891 10.3347 3.39566 6.50096e-05 -1.18371e-05 -1.71985e-05 6.82799e-05
139 1 1.91901 9.09449 5.32793 -6.08918e-06 -1.14588e-05 3.14413e-06 1.33517e-05
140 1 4.07318 10.6803 7.78366 6.1858e-05 5.34014e-05 2.55453e-05 8.56194e-05
141 1 3.04311 9.43489 9.71481 -9.46574e-06 -1.36771e-06 -1.29955e-05 1.61355e-05
142 1 4.50791 8.93877 11.762 -2.19942e-05 -4.57396e-06 1.12634e-05 2.51302e-05
143 1 2.69257 11.4524 5.76197 2.49408e-05 2.34911e-06 1.117e-05 2.74286e-05
144 1 3.82335 11.7666 10.1396 -1.84812e-05 1.01669e-05 1.30203e-05 2.47881e-05
145 1 2.66848 10.7375 12.0544 -3.22022e-06 4.08731e-05 1.34796e-05 4.31588e-05
146 1 7.15103 2.2495 2.04103 5.95305e-06 1.6603e-05 -3.40211e-05 3.83214e-05
147 1 3.76411 0.596766 3.81173 -2.051e-05 -9.78461e-06 -1.11583e-05 2.53161e-05
148 1 2.4081 0.454036 8.17528 5.5161e-05 3.98165e-05 -3.14743e-05 7.49581e-05
149 1 11.2497 6.57983 9.13112 -2.58304e-05 -4.16819e-05 4.94193e-06 4.92851e-05
