ITEM: TIMESTEP
0
ITEM: NUMBER OF ATOMS
127
ITEM: BOX BOUNDS pp pp pp
0.0000000000000000e+00 1.1400361000000000e+01
0.0000000000000000e+00 1.2098903999999999e+01
0.0000000000000000e+00 1.2816801000000000e+01
ITEM: ATOMS id type x y z fx fy fz v_fmag
1 1 2.57755 8.33057 6.44466 -1.96172e-05 2.46415e-05 7.75564e-07 3.15062e-05
2 1 9.18588 10.7214 7.22814 2.41123e-05 1.13295e-05 -3.50188e-06 2.68705e-05
3 1 8.86183 11.8236 4.92662 2.69204e-05 -1.03009e-05 -2.06607e-05 3.54638e-05
4 1 3.84704 8.67778 12.4571 2.07217e-06 3.45982e-06 -2.07051e-05 2.10942e-05
5 1 10.3816 9.11828 8.81554 1.02161e-05 2.17764e-05 4.11361e-05 4.76526e-05
6 1 8.92668 8.11211 7.04707 1.35489e-07 -1.58094e-05 2.82805e-05 3.23997e-05
7 1 10.0144 9.49111 5.06213 2.2244e-05 -1.8323e-05 -3.77933e-06 2.90657e-05
8 1 8.32711 8.50012 3.28661 6.14503e-06 -6.22113e-06 1.24402e-05 1.5206e-05
9 1 8.04999 9.70105 0.98259 2.64845e-05 -1.10395e-05 -5.49547e-06 2.92147e-05
10 1 4.96283 6.3756 12.1122 4.0159e-05 -3.30315e-05 5.93698e-06 5.23361e-05
11 1 8.05774 7.00143 9.20092 -1.90908e-05 -2.29115e-05 2.27006e-05 3.74794e-05
12 1 6.58753 5.8129 7.3539 -2.38011e-05 -1.37487e-05 5.33095e-06 2.79989e-05
13 1 10.0221 6.93809 4.88938 -3.13388e-05 2.50879e-06 8.50226e-06 3.25684e-05
14 1 6.07882 5.99395 3.38748 -9.76264e-06 4.5945e-06 2.93324e-05 3.12539e-05
15 1 7.48158 10.9732 11.6185 -1.18462e-05 -9.90149e-06 -7.37718e-06 1.71113e-05
16 1 6.76692 7.43141 1.41161 1.49685e-05 -9.04985e-06 1.30469e-05 2.18214e-05
17 1 8.50959 4.52546 9.17611 -6.03187e-05 8.80179e-06 4.02562e-05 7.30505e-05
18 1 7.0441 3.39089 7.21968 1.74044e-05 -2.10316e-05 2.07312e-05 3.42786e-05
19 1 7.73897 4.57321 4.95259 3.29163e-06 -7.73816e-06 1.18035e-06 8.49159e-06
20 1 6.348 3.48992 3.07216 2.36913e-05 -1.30759e-06 9.83331e-06 2.56843e-05
21 1 7.21382 4.93683 1.11132 1.61719e-08 1.35473e-05 4.46451e-06 1.4264e-05
22 1 5.9561 1.23489 11.6979 -2.07748e-05 -2.9048e-06 4.91745e-06 2.15456e-05
23 1 6.86802 2.73896 9.82265 -5.78546e-05 -5.65087e-05 -4.15998e-05 9.09446e-05
24 1 5.59463 1.53951 8.03 9.63919e-05 5.74155e-05 5.26573e-05 0.000123938
25 1 7.744 2.06343 4.78589 -3.24301e-06 -2.75832e-05 3.73162e-06 2.80228e-05
26 1 6.31879 11.9326 5.30388 2.60981e-05 -1.58796e-05 -5.76971e-05 6.52858e-05
27 1 7.41258 2.36141 0.803028 1.49526e-05 1.17027e-05 1.9999e-05 2.7577e-05
28 1 9.17634 12.0466 0.49598 -1.31081e-05 -1.49514e-05 -3.14875e-05 3.72401e-05
29 1 4.87626 11.0535 12.1781 4.84637e-06 8.0164e-06 1.51623e-05 1.78226e-05
30 1 5.7011 3.87863 12.0496 -6.34721e-06 -1.05535e-05 2.83258e-05 3.08871e-05
31 1 6.22273 10.951 7.647 8.76947e-06 -1.60915e-05 1.4775e-05 2.35402e-05
32 1 9.94115 2.41273 0.402683 -7.78432e-06 3.43566e-06 6.4532e-06 1.06791e-05
33 1 10.23 1.91579 4.351 6.76917e-05 -2.93004e-05 -2.79258e-05 7.88704e-05
34 1 0.273173 5.49361 6.49076 -2.32173e-05 -8.28047e-07 8.65198e-06 2.47908e-05
35 1 11.2725 5.73606 2.66603 -3.02211e-06 -1.76441e-05 1.06883e-05 2.08491e-05
36 1 10.523 3.47709 10.8667 -2.61459e-05 -8.02383e-06 1.45625e-05 3.09847e-05
37 1 0.464408 2.99267 6.23721 1.73318e-06 1.72415e-05 -1.00322e-05 2.00229e-05
38 1 0.0803984 3.28118 2.27057 3.82866e-05 -1.10143e-05 -7.86682e-06 4.06087e-05
39 1 10.9204 1.05929 10.7923 1.23952e-05 3.4263e-06 1.93301e-05 2.32171e-05
40 1 10.4948 0.737236 6.71671 -3.278e-06 -1.34836e-05 -1.63808e-05 2.14682e-05
41 1 11.1054 0.806122 2.1736 3.66249e-05 3.87998e-06 -2.11363e-05 4.24639e-05
42 1 7.22317 0.197179 9.50872 2.50898e-05 -1.72235e-05 -4.13567e-05 5.13471e-05
43 1 0.00177215 11.7514 4.54276 3.48199e-05 -3.91268e-07 1.01461e-05 3.62701e-05
44 1 9.75618 10.6909 2.77682 4.47979e-05 2.26243e-06 -1.92468e-05 4.88099e-05
45 1 6.3044 8.74291 12.1155 -3.27324e-06 -3.77107e-05 -4.97684e-05 6.25276e-05
46 1 0.0656586 8.00259 6.71185 -6.28493e-06 2.28586e-05 2.4049e-05 3.37694e-05
47 1 8.4946 0.911889 2.65716 4.86766e-05 -5.01606e-06 -3.23091e-05 5.86383e-05
48 1 10.7091 8.15829 2.75925 2.89431e-05 1.28156e-05 1.53547e-05 3.51811e-05
49 1 10.5536 6.59598 8.67823 -1.85387e-05 1.76723e-05 2.60939e-06 2.5745e-05
50 1 9.09993 5.54929 6.87563 -1.08506e-05 -3.95926e-05 1.54241e-05 4.38544e-05
51 1 8.66954 5.99233 2.95666 -1.37741e-05 2.12181e-06 -7.77013e-06 1.59562e-05
52 1 9.12502 7.31877 0.761575 1.59331e-05 -1.27728e-05 2.74982e-05 3.42514e-05
53 1 8.20128 3.93919 11.7075 -1.50294e-05 -2.74912e-06 1.01304e-05 1.83321e-05
54 1 10.8615 4.1059 8.43858 -4.09713e-05 1.34964e-05 -1.42187e-05 4.542e-05
55 1 9.38664 3.03276 6.57307 1.51233e-06 -2.23015e-05 -2.14323e-05 3.09675e-05
56 1 10.2917 4.43096 4.5955 8.75942e-06 -3.06639e-05 6.99978e-06 3.26496e-05
57 1 8.89243 3.43815 2.67785 4.19488e-05 1.91068e-05 1.89462e-06 4.61342e-05
58 1 9.73849 4.89169 0.730468 9.84998e-06 -4.71271e-06 -1.50145e-05 1.85652e-05
59 1 8.46566 1.43715 11.3792 9.89375e-07 7.879e-06 1.50252e-05 1.69945e-05
60 1 9.30517 1.99135 8.95412 -1.55377e-05 -1.94961e-05 7.34254e-07 2.49411e-05
61 1 7.88601 0.885099 7.08041 -9.79152e-06 -2.00993e-05 -2.87441e-05 3.64154e-05
62 1 7.38406 6.35051 11.7522 -3.87237e-05 2.53463e-05 1.86677e-05 4.99043e-05
63 1 9.75618 5.92993 11.0582 -6.6546e-06 6.03946e-06 -1.44208e-05 1.69917e-05
64 1 7.18823 10.8018 3.18053 2.05382e-05 3.45587e-05 -2.41037e-05 4.68733e-05
65 1 7.90528 9.61654 9.11178 -5.87315e-05 1.53014e-06 -2.01547e-05 6.21123e-05
66 1 2.59251 6.19666 12.675 -4.68708e-05 -1.51095e-05 -5.96802e-05 7.7375e-05
67 1 0.862514 5.37104 10.296 -6.02504e-05 -7.08752e-06 -1.11682e-05 6.16852e-05
68 1 1.50379 9.0873 8.67725 -4.72481e-05 -4.91394e-05 4.19532e-05 8.00446e-05
69 1 1.73653 6.63487 8.2732 2.18518e-05 2.79676e-05 1.85559e-05 4.00501e-05
70 1 4.89528 7.14747 5.70262 -2.87731e-06 1.32668e-05 -2.91273e-05 3.21354e-05
71 1 1.22285 6.94881 4.63466 -1.87257e-05 4.32199e-05 1.80388e-05 5.04382e-05
72 1 1.85931 7.29392 2.23138 1.05823e-05 -1.90569e-05 4.16794e-06 2.21928e-05
73 1 0.658167 4.4108 12.6982 -1.10517e-05 -3.48652e-05 -3.27106e-06 3.67209e-05
74 1 3.43563 5.06781 10.2603 -8.78935e-05 -1.47392e-05 -4.14817e-05 9.83018e-05
75 1 2 4.11426 8.16297 -5.7934e-05 1.70681e-05 -5.62197e-07 6.03986e-05
76 1 2.87036 5.59524 6.20983 4.47012e-07 9.08312e-06 1.60281e-06 9.23428e-06
77 1 1.47881 4.42111 4.33054 -2.70823e-05 3.0082e-05 -8.65636e-06 4.13922e-05
78 1 2.20277 4.67182 1.90938 -1.07972e-05 8.28221e-06 -1.45893e-05 1.99505e-05
79 1 4.32725 7.3934 1.78622 -2.48605e-06 -1.00993e-05 1.04253e-05 1.47263e-05
80 1 0.96819 1.93704 12.6829 -4.00764e-06 -3.73225e-05 -3.42671e-06 3.76931e-05
81 1 0.531748 1.8584 8.53317 1.21205e-06 5.99392e-06 3.22148e-05 3.27901e-05
82 1 3.01663 2.97937 5.94963 -3.81913e-06 3.80239e-05 -1.18127e-05 3.99993e-05
83 1 1.32146 1.9 4.06632 1.69005e-05 3.50642e-05 -2.82943e-05 4.81216e-05
84 1 2.47884 2.02492 1.83497 3.63152e-06 1.6264e-05 2.30208e-06 1.68228e-05
85 1 4.4871 0.166203 9.77199 1.29596e-05 7.42517e-05 1.16939e-05 7.62759e-05
86 1 4.09986 12.0742 1.57486 6.16187e-06 3.04062e-05 1.87062e-05 3.62275e-05
87 1 1.63323 0.738519 6.32761 5.70529e-05 -2.78447e-05 2.00951e-05 6.65896e-05
88 1 1.94308 11.694 2.96398 3.6173e-05 1.16394e-05 -4.52159e-05 5.9063e-05
89 1 2.53653 11.2578 8.10943 4.12213e-05 7.02605e-05 -4.91388e-05 9.51334e-05
90 1 0.473699 10.4312 6.63491 -5.77905e-06 9.76208e-06 6.15679e-05 6.26043e-05
91 1 2.63181 10.7507 5.29991 7.43132e-05 0.000100269 5.11414e-05 0.000134877
92 1 0.993183 9.40463 4.07791 -9.19762e-05 -9.1909e-05 -3.5644e-05 0.000134823
93 1 3.02731 9.65421 1.92823 2.70477e-05 -1.1305e-05 -1.49836e-05 3.29225e-05
94 1 1.71696 2.99238 10.4942 -3.96574e-05 1.13277e-06 -1.20851e-06 3.96919e-05
95 1 3.14947 10.1964 10.4234 3.44542e-05 -9.17687e-06 6.58045e-07 3.56615e-05
96 1 3.36907 8.45382 4.06424 1.31941e-05 -2.58479e-05 -2.77878e-05 4.01791e-05
97 1 4.1014 9.1628 8.29725 -1.45954e-05 -1.32533e-05 5.37837e-06 2.04353e-05
98 1 6.38755 8.31674 7.51883 3.86095e-06 -3.38236e-05 -1.65664e-05 3.78602e-05
99 1 7.45968 9.66017 5.54656 3.27075e-05 2.98103e-05 1.2504e-05 4.59868e-05
100 1 5.86514 8.53261 3.71641 2.19404e-06 2.77054e-06 1.68486e-05 1.72153e-05
101 1 5.51295 9.7506 1.48314 2.71398e-05 7.3332e-06 9.90935e-06 2.98084e-05
102 1 3.17508 7.57962 10.2498 -8.84508e-06 2.58637e-05 -9.85261e-06 2.90558e-05
103 1 5.72086 7.63735 9.94507 -3.03695e-05 1.01864e-05 -9.60107e-06 3.34403e-05
104 1 4.27273 6.54753 8.1535 -2.22328e-05 1.89032e-05 -4.56667e-06 2.95378e-05
105 1 7.45184 7.077 5.26508 1.14479e-05 2.45665e-05 2.03775e-05 3.39089e-05
106 1 3.54108 5.91619 3.74438 -2.7931e-06 -1.66755e-06 -1.3128e-05 1.3525e-05
107 1 4.68025 4.90437 1.45529 -8.09362e-06 -3.49404e-07 6.11472e-06 1.01498e-05
108 1 3.15137 3.67787 12.5139 1.71683e-05 -9.20236e-06 1.59135e-07 1.94798e-05
109 1 6.01011 5.13647 9.80987 -7.23196e-05 -2.64502e-06 3.16083e-05 7.89697e-05
110 1 4.57947 3.97393 7.89735 -1.41266e-05 -7.78489e-06 9.22221e-06 1.85799e-05
111 1 4.8688 9.69538 5.90352 -1.15259e-05 2.68032e-05 -3.51594e-05 4.56886e-05
112 1 5.19132 4.65838 5.42245 -1.29157e-05 1.99764e-06 9.18415e-06 1.59735e-05
113 1 4.91495 2.34906 1.14973 1.04008e-05 -1.34156e-05 1.83733e-05 2.50146e-05
114 1 3.44136 1.17357 12.1482 2.33855e-05 -6.36881e-06 4.9866e-05 5.54443e-05
115 1 4.31804 2.70139 10.2297 -2.86599e-05 3.92928e-05 2.17164e-06 4.8683e-05
116 1 3.04723 1.77402 8.24351 -1.99333e-05 9.55947e-06 -1.27113e-05 2.55009e-05
117 1 5.39177 2.20479 5.54156 4.45987e-05 1.90199e-05 -3.63939e-05 6.06244e-05
118 1 3.6096 0.937543 4.24161 5.41559e-06 -1.63673e-05 1.41332e-05 2.22927e-05
119 1 5.90457 1.03085 3.13246 1.74346e-05 -1.71001e-05 1.60347e-05 2.92146e-05
120 1 6.65743 12.0189 0.976135 1.59802e-05 1.58614e-05 1.7985e-05 2.88168e-05
121 1 1.96467 0.483202 10.207 3.2776e-05 6.69468e-05 -1.88274e-05 7.68805e-05
122 1 4.19519 0.126183 6.57646 -0.000157151 -0.000104536 -3.05657e-05 0.000191203
123 1 4.6121 10.7947 3.65974 3.45032e-06 1.33009e-05 1.3597e-05 1.93313e-05
124 1 11.3768 11.5261 8.78638 1.22303e-05 2.61138e-06 3.99009e-05 4.18149e-05
125 1 5.6774 10.11 10.0178 3.5751e-05 -4.28278e-05 -3.03021e-05 6.34868e-05
126 1 3.8538 3.36915 3.50847 3.1513e-05 1.31488e-05 2.07103e-06 3.42089e-05
127 1 8.62216 8.47571 11.2482 8.56333e-06 9.27657e-06 -1.23894e-05 1.76885e-05
