ITEM: TIMESTEP
0
ITEM: NUMBER OF ATOMS
135
ITEM: BOX BOUNDS pp pp pp
0.0000000000000000e+00 1.1396901000000000e+01
0.0000000000000000e+00 1.2680864000000000e+01
0.0000000000000000e+00 1.2228524999999999e+01
ITEM: ATOMS id type x y z fx fy fz v_fmag
1 1 0.225219 1.47379 10.0442 3.71826e-05 2.25067e-05 1.63629e-05 4.64419e-05
2 1 7.58844 3.06018 3.07963 -7.91773e-06 1.1119e-06 -3.02878e-07 8.00116e-06
3 1 8.88574 4.31152 1.22998 -3.35218e-05 3.30061e-05 -1.6328e-05 4.97968e-05
4 1 7.80548 3.21423 11.3151 1.41737e-05 2.84318e-05 -2.08984e-05 3.80263e-05
5 1 9.17057 1.72619 9.64098 -7.4871e-05 -6.49577e-06 2.11278e-05 7.80657e-05
6 1 8.06011 0.498124 7.54599 -3.63362e-05 -9.49799e-06 3.05506e-05 4.84136e-05
7 1 9.64347 1.59904 5.83152 -3.13963e-06 4.05271e-05 6.262e-06 4.1128e-05
8 1 8.56092 0.485374 3.6891 5.01796e-05 1.85109e-05 -4.66282e-06 5.36879e-05
9 1 9.82501 1.77015 1.85424 -1.08104e-05 1.01061e-05 1.61829e-05 2.19291e-05
10 1 7.61423 0.653395 11.3732 2.07518e-05 -1.65599e-05 -2.0992e-05 3.38457e-05
11 1 6.48143 12.1017 9.29475 3.56744e-05 -2.02803e-05 -1.41436e-05 4.3405e-05
12 1 5.38558 10.8813 7.15949 1.33162e-05 -1.93915e-06 -3.20228e-06 1.38324e-05
13 1 6.97283 11.9843 5.40099 -1.36908e-05 -4.18659e-05 6.33712e-06 4.45011e-05
14 1 6.87645 10.9731 3.01413 1.3064e-05 1.40664e-05 -1.87219e-05 2.68149e-05
15 1 8.39771 12.1401 1.30822 3.91016e-05 -9.48563e-06 -1.05748e-05 4.16022e-05
16 1 9.89817 4.15839 5.80002 -2.49183e-05 -5.19115e-05 -1.31263e-05 5.90595e-05
17 1 4.87486 11.0291 11.0276 2.55193e-05 -3.80677e-05 8.71337e-06 4.66509e-05
18 1 6.27216 8.47417 6.93145 1.81348e-05 6.71029e-07 -2.1691e-05 2.82811e-05
19 1 7.82276 9.55452 5.16718 1.65368e-06 -6.89441e-06 -3.67164e-06 7.98426e-06
20 1 6.74342 8.31465 3.07887 -1.1991e-05 3.98397e-06 -9.97788e-06 1.61001e-05
21 1 8.2849 9.46163 1.37396 1.5295e-06 -1.04436e-05 -2.44918e-06 1.08354e-05
22 1 4.69605 8.44873 11.1093 -2.25109e-05 -3.63774e-05 -3.0493e-05 5.25346e-05
23 1 7.155 7.14068 9.13374 4.70744e-05 -7.61055e-05 -1.92897e-05 9.15431e-05
24 1 6.07779 5.90762 7.01957 3.73284e-05 5.0494e-06 1.3114e-05 3.98859e-05
25 1 7.65818 6.95944 5.23577 -2.00711e-05 -1.75154e-05 1.37431e-05 2.99752e-05
26 1 6.62147 5.64413 3.16936 -3.33319e-05 9.25246e-06 2.2753e-05 4.14044e-05
27 1 8.13119 6.80198 1.44284 7.16704e-07 1.59701e-05 -4.07665e-05 4.37888e-05
28 1 5.56853 6.03719 10.8757 -1.52209e-05 1.5439e-05 1.54624e-05 2.66295e-05
29 1 6.92947 4.5622 9.18332 3.2536e-06 3.27669e-05 -3.00891e-05 4.4605e-05
30 1 5.84334 3.33369 7.07937 -1.75196e-05 -3.53282e-05 1.26484e-05 4.14125e-05
31 1 7.46906 4.4031 5.35297 2.98754e-05 1.05078e-05 1.09108e-05 3.34963e-05
32 1 6.2591 9.53633 9.35961 -9.62222e-06 1.05563e-05 -1.48781e-05 2.06247e-05
33 1 4.98258 3.42049 2.63967 -2.06005e-05 3.7438e-06 1.56999e-05 2.61703e-05
34 1 8.29637 3.07339 7.51631 -2.60463e-05 -1.31008e-06 -3.17741e-06 2.62721e-05
35 1 8.02224 5.77872 11.2995 -3.46266e-05 -2.21414e-05 1.04896e-05 4.24179e-05
36 1 9.86159 10.534 11.8928 -7.88909e-06 9.24523e-06 -3.42941e-06 1.26283e-05
37 1 11.1852 7.94291 7.79632 -9.10892e-06 -1.14938e-06 4.37379e-05 4.46911e-05
38 1 0.266213 7.78051 3.97333 -5.26381e-05 6.17549e-06 -3.18028e-06 5.30944e-05
39 1 9.70788 7.92063 11.9664 3.30144e-07 4.60754e-05 -1.38238e-05 4.81056e-05
40 1 10.9806 5.38494 7.8896 -3.64153e-06 1.39827e-05 -2.56018e-05 2.93978e-05
41 1 0.142663 5.21081 4.06316 -6.36425e-05 8.8991e-06 -7.76512e-06 6.47292e-05
42 1 10.4532 5.4635 11.7397 2.85294e-05 -1.19339e-05 -5.32784e-06 3.13804e-05
43 1 10.759 2.81738 7.93065 1.55892e-05 2.3028e-05 -1.48309e-05 3.15162e-05
44 1 11.0642 2.71851 4.00251 -1.79496e-05 2.5987e-06 7.90916e-06 1.97862e-05
45 1 10.2536 2.93017 11.7606 -3.44335e-05 1.69755e-05 -1.33275e-05 4.06381e-05
46 1 10.5221 0.246221 7.95252 -8.70613e-06 1.08567e-05 -4.71248e-07 1.39243e-05
47 1 11.0159 0.154919 4.11991 -2.77155e-05 -3.04659e-05 2.05701e-05 4.60375e-05
48 1 10.1096 0.404775 11.8068 2.25014e-05 -1.53954e-05 1.8463e-05 3.29274e-05
49 1 8.93902 11.8427 9.70837 2.64691e-06 2.54269e-05 -8.84598e-06 2.70515e-05
50 1 9.39275 4.3028 9.60624 -4.60179e-05 2.19162e-05 -1.18237e-05 5.23237e-05
51 1 7.83264 10.6107 7.59012 -2.2336e-05 1.40163e-05 -3.08553e-05 4.05882e-05
52 1 9.35246 10.6954 3.43883 4.56432e-06 6.28945e-06 2.10404e-05 2.24296e-05
53 1 10.8665 11.9037 1.76321 4.05978e-06 2.20458e-05 5.76616e-06 2.31462e-05
54 1 7.37029 10.7832 11.472 1.16491e-05 -1.82498e-05 8.0803e-06 2.31095e-05
55 1 8.72084 9.28411 9.78992 2.50299e-05 -5.5408e-06 -8.30487e-06 2.69475e-05
56 1 8.72642 8.21178 7.37079 5.28286e-07 -8.03373e-06 8.85519e-06 1.19681e-05
57 1 10.2756 9.28486 5.61427 -7.34193e-06 2.20772e-05 -2.01316e-06 2.33529e-05
58 1 9.21768 8.04094 3.49233 3.01584e-05 8.76465e-06 -9.2309e-06 3.27346e-05
59 1 10.7688 9.22406 1.80795 -2.33331e-05 1.79959e-05 3.77986e-06 2.97082e-05
60 1 7.19944 8.19389 11.543 -2.55166e-06 2.54659e-05 1.06329e-05 2.77143e-05
61 1 9.60945 6.87993 9.56226 -3.64021e-05 2.06608e-05 -2.41608e-05 4.83293e-05
62 1 8.52485 5.64867 7.45302 -2.61059e-05 -2.74201e-05 2.04859e-05 4.30471e-05
63 1 10.1021 6.70524 5.69064 -1.17159e-05 1.64322e-05 -5.73319e-06 2.09797e-05
64 1 9.09347 5.3703 3.57424 -1.04431e-05 1.17148e-05 3.22496e-06 1.60217e-05
65 1 10.6341 6.54389 1.85239 -1.27502e-05 3.51053e-05 1.11129e-05 3.89672e-05
66 1 9.42151 11.7044 5.83915 2.36494e-05 -3.05396e-05 1.28027e-05 4.06924e-05
67 1 0.414084 10.3947 3.91507 8.43493e-06 9.24409e-06 6.29223e-07 1.25298e-05
68 1 6.43011 4.65217 0.817827 1.7637e-06 -2.77843e-05 -2.27329e-05 3.59425e-05
69 1 6.70569 1.98637 9.22956 4.11575e-05 -4.31345e-05 -2.54051e-05 6.4807e-05
70 1 2.65966 1.15547 10.5175 -1.96341e-05 -1.34876e-05 5.2415e-06 2.43903e-05
71 1 1.59064 12.6607 8.37562 5.95146e-05 3.2541e-05 6.73581e-06 6.81636e-05
72 1 0.487251 11.4473 6.27724 -9.01911e-06 1.07877e-05 2.1283e-05 2.55085e-05
73 1 2.07924 12.5628 4.5308 1.49031e-05 -2.21322e-05 1.48366e-05 3.05297e-05
74 1 1.92724 11.5173 2.22562 5.70569e-05 1.27125e-05 2.23269e-05 6.25746e-05
75 1 3.38734 12.5494 0.41862 5.50138e-05 -4.15123e-05 3.04237e-05 7.53352e-05
76 1 11.3783 11.5906 10.0621 4.97877e-05 -5.57067e-06 3.96791e-05 6.39084e-05
77 1 1.36223 10.0814 8.4295 4.39143e-06 1.12099e-05 8.19751e-06 1.45652e-05
78 1 1.34825 9.0235 6.05374 5.11304e-05 1.85864e-05 -1.02967e-05 5.53696e-05
79 1 2.89348 10.1182 4.3317 -1.91752e-05 2.07459e-05 1.26014e-05 3.09334e-05
80 1 1.81798 8.86242 2.31084 1.10659e-05 1.29703e-05 8.64503e-06 1.91159e-05
81 1 3.28843 9.96832 0.532766 4.88959e-06 -2.3609e-07 1.30518e-05 1.39396e-05
82 1 11.1717 9.02351 10.1427 -5.629e-06 1.91189e-05 -3.19666e-05 3.76707e-05
83 1 2.23904 7.67138 8.26381 2.40638e-05 -2.5895e-05 -2.86094e-05 4.54765e-05
84 1 3.84765 2.36518 0.468244 -2.02808e-06 -2.53051e-05 -2.85605e-05 3.82121e-05
85 1 1.16955 6.44714 6.14701 2.12503e-05 8.51082e-06 -1.88859e-06 2.2969e-05
86 1 1.68945 6.20301 2.3506 4.9416e-06 -2.05529e-05 2.83908e-05 3.5396e-05
87 1 3.1061 7.35593 0.591128 -1.86878e-05 1.83378e-05 -4.10329e-05 4.86745e-05
88 1 0.659477 6.59532 10.0258 9.36493e-06 1.42701e-05 -8.0163e-06 1.88573e-05
89 1 2.02768 5.10345 8.32366 -2.17102e-05 1.68817e-05 -2.25058e-05 3.55364e-05
90 1 0.945845 3.88601 6.19686 -4.67763e-05 1.56093e-05 2.30712e-05 5.44422e-05
91 1 2.59514 4.9419 4.49585 1.62885e-05 -4.74353e-06 -1.76467e-05 2.4479e-05
92 1 11.3487 3.99623 1.73474 -2.46909e-05 -3.26852e-05 -2.51823e-05 4.80844e-05
93 1 1.50305 5.1741 12.21 -2.31405e-05 -2.80127e-05 9.21803e-06 3.74856e-05
94 1 0.449944 4.02219 10.0574 -3.96677e-05 3.34338e-05 1.20172e-05 5.32519e-05
95 1 1.81575 2.54444 8.35543 3.66303e-05 -1.53746e-05 1.82405e-05 4.37136e-05
96 1 0.708551 1.34458 6.22227 2.61151e-05 2.08257e-05 2.34127e-05 4.07904e-05
97 1 2.2265 2.43612 4.45093 1.44051e-05 2.15788e-06 5.7369e-06 1.56549e-05
98 1 1.06658 1.36626 2.303 -1.31566e-05 6.69768e-06 -2.19597e-06 1.49257e-05
99 1 1.30907 2.55823 0.0140356 -4.05586e-05 -2.06762e-05 -1.06759e-06 4.55373e-05
100 1 2.73716 7.51012 4.40634 8.79838e-06 1.55374e-05 6.98507e-06 1.91732e-05
101 1 5.34866 3.46645 10.9292 -3.94425e-05 -1.99084e-05 -2.87564e-07 4.4183e-05
102 1 3.61252 1.07342 2.73081 -9.89311e-06 1.60437e-05 2.97404e-05 3.52103e-05
103 1 3.16808 1.06562 6.65212 -3.46769e-05 8.85303e-07 2.47013e-05 4.25843e-05
104 1 5.60844 0.768404 7.10931 6.17718e-05 -1.57844e-05 2.52846e-05 6.85873e-05
105 1 7.18949 1.87083 5.38734 -2.61458e-06 4.00692e-06 -2.82032e-05 2.86062e-05
106 1 6.10149 0.795551 3.18208 -2.67146e-05 1.25347e-05 -4.08493e-06 2.97905e-05
107 1 6.40705 2.08434 0.920798 1.60153e-05 1.58236e-05 2.7146e-05 3.52673e-05
108 1 5.1274 0.913558 10.9718 2.33026e-05 -2.91316e-05 -9.07378e-06 3.83926e-05
109 1 4.02715 12.359 8.85677 -3.59117e-05 -4.35763e-05 1.45343e-05 5.83077e-05
110 1 2.94846 11.1752 6.70546 -3.33349e-06 1.31967e-05 1.18412e-05 1.8041e-05
111 1 4.5347 12.2813 4.94422 3.68941e-05 -2.32146e-05 -2.28163e-06 4.36497e-05
112 1 4.39211 11.2348 2.59402 1.45993e-05 1.81616e-05 1.23927e-05 2.63925e-05
113 1 5.88977 12.2789 0.853765 4.58472e-05 1.18005e-05 -3.63987e-06 4.74812e-05
114 1 2.41099 11.2608 10.5639 -9.81835e-06 -3.02637e-05 -1.52996e-06 3.18533e-05
115 1 3.7994 9.78981 8.92197 -3.60275e-06 1.51244e-05 -1.17721e-05 1.95015e-05
116 1 3.81034 8.75288 6.50605 -3.30862e-05 1.4006e-05 9.78698e-06 3.72377e-05
117 1 5.35944 9.83786 4.74803 5.93409e-05 1.47393e-05 -1.29346e-05 6.24971e-05
118 1 4.73363 2.16221 4.91267 2.52303e-05 1.85974e-06 -1.4887e-05 2.93539e-05
119 1 4.27028 8.59188 2.66899 2.77827e-05 1.21544e-05 1.50497e-05 3.38542e-05
120 1 2.22202 8.69074 10.6625 3.7532e-06 -1.19804e-05 -1.46681e-05 1.93073e-05
121 1 4.69776 7.39398 8.70006 -1.059e-05 -2.92487e-05 1.81085e-05 3.59938e-05
122 1 3.62602 6.18139 6.58957 -5.89247e-05 1.06815e-05 1.24601e-05 6.11675e-05
123 1 5.19979 7.2429 4.82276 -9.9932e-06 -4.90534e-05 -1.445e-05 5.21047e-05
124 1 4.15275 5.94861 2.75266 -3.01979e-06 -3.1283e-05 -1.28728e-05 3.39625e-05
125 1 5.62105 7.09048 1.0166 1.77294e-06 2.7761e-05 -2.34809e-05 3.64029e-05
126 1 3.11944 6.28047 10.4372 -1.68285e-05 1.42781e-05 -1.93817e-05 2.9372e-05
127 1 4.4739 4.81028 8.75748 -8.44028e-06 -2.1375e-05 1.81245e-05 2.92682e-05
128 1 3.39647 3.61362 6.63395 -1.40086e-05 3.86219e-05 1.54121e-06 4.11128e-05
129 1 5.03643 4.68367 4.9341 -3.971e-05 1.92818e-05 -1.96163e-05 4.8306e-05
130 1 2.44069 3.69455 2.18169 3.00093e-06 7.34345e-06 -1.43979e-05 1.64387e-05
131 1 3.96704 4.9279 0.406786 1.3143e-05 -4.35644e-05 2.5867e-05 5.23421e-05
132 1 2.88659 3.7106 10.5196 3.27158e-05 -2.02299e-05 4.23595e-06 3.86978e-05
133 1 4.25197 2.24458 8.80795 -1.93461e-05 2.79164e-06 -4.14898e-06 1.99819e-05
134 1 5.78443 9.69722 0.950773 3.4452e-05 1.15519e-06 -1.08089e-05 3.61263e-05
135 1 10.289 10.3486 8.00616 2.69435e-05 1.22793e-05 -5.68029e-07 2.96151e-05
