ITEM: TIMESTEP
0
ITEM: NUMBER OF ATOMS
111
ITEM: BOX BOUNDS pp pp pp
0.0000000000000000e+00 1.1464695000000001e+01
0.0000000000000000e+00 1.1317634999999999e+01
0.0000000000000000e+00 1.1648808000000001e+01
ITEM: ATOMS id type x y z fx fy fz v_fmag
1 1 0.81761 1.2286 1.6147 -7.29687e-05 4.76607e-05 -5.10475e-05 0.000101004
2 1 6.9156 4.78304 1.41195 -2.22751e-05 -1.97292e-05 1.67073e-06 2.98029e-05
3 1 8.62427 5.89491 10.339 3.32415e-05 1.14704e-05 8.82579e-06 3.62555e-05
4 1 10.2242 4.86235 5.33254 3.06591e-05 1.56398e-05 -4.94908e-05 6.0282e-05
5 1 8.8403 2.71203 5.02413 1.74833e-05 2.08105e-05 1.23366e-06 2.72078e-05
6 1 9.00092 3.65846 0.228885 -1.86701e-06 1.50703e-05 2.78332e-05 3.17062e-05
7 1 10.4143 4.08909 9.66749 -1.3052e-05 2.76857e-05 -1.56857e-05 3.43932e-05
8 1 7.95272 0.94282 7.95756 -1.36693e-05 -2.16683e-05 1.94354e-05 3.21574e-05
9 1 10.5573 2.26808 3.25484 1.26502e-05 6.76541e-06 -1.92149e-05 2.39794e-05
10 1 9.72819 1.27176 1.0921 1.38495e-05 -1.77528e-05 3.71956e-07 2.2519e-05
11 1 10.9333 1.87258 10.5563 1.71947e-05 2.87981e-05 -8.63554e-06 3.46347e-05
12 1 10.5042 0.343313 8.52772 -2.55117e-05 -2.28495e-05 1.75577e-06 3.42933e-05
13 1 8.0599 4.89795 3.78951 1.65212e-05 -2.28935e-06 -2.69905e-05 3.17282e-05
14 1 9.66649 0.549827 6.06825 2.1333e-05 1.09821e-05 -1.45751e-05 2.80738e-05
15 1 4.2693 10.0003 0.585422 -4.07499e-05 -2.49e-05 -5.66975e-06 4.80907e-05
16 1 5.94743 0.753857 3.18529 -3.38249e-05 2.23785e-05 3.37215e-05 5.27452e-05
17 1 6.64163 8.95549 8.81319 8.4265e-06 -1.08396e-05 5.5351e-05 5.70284e-05
18 1 4.15152 10.0866 3.17564 -2.59759e-05 8.04654e-06 -2.03536e-05 3.39671e-05
19 1 2.07271 7.98587 2.96164 2.00199e-05 4.03318e-05 -1.17424e-05 4.65332e-05
20 1 8.56914 8.69299 2.32277 -1.94991e-05 2.54551e-05 -1.09008e-05 3.38675e-05
21 1 6.25651 8.04263 6.48527 2.75478e-05 1.05204e-05 -1.8463e-05 3.47914e-05
22 1 4.44649 6.56433 5.40085 -9.89303e-06 3.45875e-05 -1.18818e-05 3.7886e-05
23 1 3.3123 7.61826 0.758146 -2.44819e-05 -2.65045e-05 -3.23242e-05 4.84428e-05
24 1 7.61857 8.17418 11.0572 -1.54109e-05 -2.74111e-06 1.26923e-05 2.0152e-05
25 1 6.97818 6.36031 8.43076 -5.35433e-05 -6.19838e-06 -1.47647e-05 5.58865e-05
26 1 5.71895 10.6485 7.15865 -1.19291e-05 -2.22219e-05 1.09889e-05 2.75114e-05
27 1 5.51128 5.15554 3.53163 -5.12142e-06 -3.67073e-05 2.63121e-05 4.5453e-05
28 1 9.15283 5.28224 7.65086 -1.27089e-06 -8.46423e-06 7.70555e-06 1.15167e-05
29 1 6.15337 7.27623 1.24756 1.43627e-05 7.50139e-06 -3.58719e-05 3.93618e-05
30 1 10.6876 9.5614 6.76264 4.51897e-07 7.20585e-07 -2.9621e-06 3.0818e-06
31 1 8.62641 10.3905 0.470956 -3.9154e-05 -2.36489e-05 1.36866e-05 4.77454e-05
32 1 11.1546 11.2483 4.19487 3.71496e-05 1.70265e-05 -6.61304e-06 4.13972e-05
33 1 11.4099 9.06846 9.26542 2.24941e-06 6.04956e-05 1.34303e-05 6.20093e-05
34 1 9.10592 9.5208 4.66179 -3.28201e-05 1.81448e-05 -1.82617e-05 4.17119e-05
35 1 7.01235 7.32167 3.95842 -2.14223e-05 -1.55792e-05 2.88281e-05 3.91495e-05
36 1 11.2317 7.02513 6.51366 1.6727e-05 1.37821e-05 -1.8906e-05 2.87606e-05
37 1 8.67957 7.38301 6.17825 -1.53916e-05 -3.3214e-05 -1.20611e-05 3.85428e-05
38 1 8.71039 6.45847 1.29245 1.24808e-05 -2.22709e-06 -1.44936e-05 1.9256e-05
39 1 10.3182 4.81254 2.54082 1.65483e-05 -7.84587e-06 -1.6316e-05 2.45278e-05
40 1 0.149853 3.46323 0.81617 1.94638e-05 -6.85618e-05 2.86511e-06 7.13286e-05
41 1 10.9807 6.48062 9.13775 2.81065e-05 -3.11314e-05 -3.20651e-05 5.27949e-05
42 1 10.752 5.67661 0.0435849 2.59766e-06 2.17272e-05 -3.53373e-05 4.15637e-05
43 1 9.83869 2.73044 7.54612 -6.65808e-06 3.39196e-06 4.34075e-05 4.40459e-05
44 1 8.15109 9.88615 6.96468 9.16581e-07 -1.21351e-05 -2.43388e-05 2.72118e-05
45 1 6.42728 10.544 10.8263 -2.37711e-05 -3.2928e-05 1.83387e-05 4.45604e-05
46 1 8.5037 0.130236 3.10867 4.33507e-05 -3.04106e-05 -3.25416e-06 5.30536e-05
47 1 8.80412 10.1874 9.60822 -4.16573e-06 2.64413e-06 1.70702e-05 1.77689e-05
48 1 6.49979 9.81367 4.49656 2.53549e-05 -1.47513e-06 -1.70114e-05 3.05685e-05
49 1 4.59395 7.64778 3.13831 -1.37885e-05 9.27768e-06 3.80769e-05 4.15458e-05
50 1 10.6584 10.126 2.00945 4.06468e-06 1.91428e-05 3.41673e-05 3.93748e-05
51 1 10.1354 8.22898 11.3205 5.15182e-05 1.65429e-05 -1.05904e-05 5.51357e-05
52 1 9.0439 7.92014 8.61968 1.30225e-05 2.01298e-05 1.06188e-05 2.62212e-05
53 1 6.80929 5.546 5.94523 1.95316e-05 2.11873e-05 2.65059e-06 2.89381e-05
54 1 0.904447 2.39897 8.44274 -2.11682e-05 -1.95389e-06 3.43908e-06 2.15346e-05
55 1 9.58876 6.95925 3.90933 -3.29852e-06 2.70981e-05 4.32124e-05 5.11126e-05
56 1 4.35573 5.33782 1.15759 -1.03457e-05 -1.08633e-05 -1.89209e-05 2.41463e-05
57 1 7.28379 3.26687 6.92549 -2.70419e-05 -1.48647e-05 2.35567e-05 3.88219e-05
58 1 5.27301 2.91035 1.92677 -8.64207e-06 9.36364e-06 -2.87656e-06 1.30628e-05
59 1 4.46926 1.28504 11.501 7.96361e-06 -2.24988e-06 2.7553e-05 2.87689e-05
60 1 5.9889 1.38841 9.41244 -2.02576e-05 3.68965e-05 2.50849e-05 4.89997e-05
61 1 4.18597 0.600564 4.96782 2.77536e-05 -1.34848e-05 1.63143e-05 3.49036e-05
62 1 0.782411 0.428676 6.64643 -4.53178e-05 -3.28086e-05 -1.79899e-05 5.87685e-05
63 1 1.70495 10.4561 2.58022 2.56558e-05 -1.84757e-05 4.68391e-05 5.65109e-05
64 1 1.09403 9.02077 0.627081 1.21974e-05 -3.29772e-05 -4.13201e-05 5.42551e-05
65 1 1.68007 9.25035 7.43766 -3.25186e-05 -4.5857e-05 3.35349e-06 5.63167e-05
66 1 4.12327 8.66306 8.05835 3.29456e-05 -1.45023e-05 -2.26321e-05 4.252e-05
67 1 1.93736 6.7743 8.18248 1.1922e-05 -9.18874e-06 -2.06438e-06 1.5193e-05
68 1 0.570237 6.15711 4.03976 7.51058e-06 -4.80037e-05 -5.20171e-06 4.88653e-05
69 1 2.65801 2.35066 6.41945 -1.02759e-05 2.38349e-06 7.74589e-06 1.30871e-05
70 1 1.19311 7.04786 10.8549 6.7361e-05 6.35452e-05 1.64318e-05 9.40505e-05
71 1 2.14542 4.87312 5.74395 3.25196e-05 5.058e-05 -3.41329e-06 6.02288e-05
72 1 1.14111 3.75716 3.42457 -1.77553e-05 3.66133e-05 -1.27789e-05 4.26507e-05
73 1 1.93231 2.17927 10.9345 -4.55811e-05 3.08915e-05 2.66012e-05 6.11518e-05
74 1 2.86694 4.26898 8.25561 6.33051e-06 -5.39495e-05 2.93277e-05 6.17312e-05
75 1 0.134179 2.70306 5.65726 -4.09082e-05 -2.73111e-05 7.53446e-06 4.97609e-05
76 1 2.72066 3.3389 1.46325 -1.33736e-05 1.26876e-05 -4.58052e-05 4.93755e-05
77 1 2.20806 11.1534 11.6204 3.62835e-05 -4.23969e-06 -4.50606e-06 3.68073e-05
78 1 3.49168 1.87598 8.94457 -4.60409e-06 -6.47347e-06 -2.49168e-06 8.32538e-06
79 1 1.78071 1.3416 4.13172 -1.14479e-05 4.69276e-06 2.20057e-05 2.52453e-05
80 1 2.52777 8.96395 10.0525 -1.90675e-05 -5.60727e-05 3.33265e-05 6.79587e-05
81 1 0.31105 4.66969 7.5054 -3.1374e-05 1.64349e-05 -4.21416e-06 3.56678e-05
82 1 1.35873 4.58304 10.3046 -2.26972e-05 -3.3753e-05 -1.88597e-05 4.48344e-05
83 1 6.00667 5.68225 10.7244 2.24614e-05 -3.5499e-05 2.80151e-05 5.04929e-05
84 1 5.46242 3.90679 8.72441 -3.10342e-05 -5.97279e-06 -7.03489e-06 3.23772e-05
85 1 3.68023 3.09866 4.00161 9.76666e-06 3.32378e-05 1.48468e-05 3.76904e-05
86 1 6.24166 2.94727 4.54447 -5.76159e-05 2.4211e-05 -3.57745e-06 6.25984e-05
87 1 6.39854 3.12623 11.2327 -1.39285e-05 -2.61548e-06 1.8829e-05 2.35664e-05
88 1 7.96569 3.56401 9.32081 1.59631e-05 2.48444e-05 -7.2014e-06 3.03961e-05
89 1 5.20842 1.80931 6.98573 2.6362e-07 4.02202e-06 4.88588e-05 4.90248e-05
90 1 7.97866 2.66303 2.53607 2.30217e-06 2.42825e-05 -1.543e-05 2.88622e-05
91 1 6.95272 1.01009 0.903705 -9.78164e-06 -1.55535e-05 -1.81958e-05 2.58588e-05
92 1 8.43535 1.28431 10.4814 -3.21296e-05 -3.09782e-05 -3.51675e-05 5.68218e-05
93 1 7.16221 0.743954 5.49051 1.3858e-05 -2.4186e-05 7.94725e-06 2.89856e-05
94 1 3.25305 11.2198 7.22944 1.10316e-05 3.48887e-05 1.96617e-05 4.15391e-05
95 1 1.52238 11.2983 9.19143 3.52289e-07 -1.95934e-05 1.22116e-05 2.309e-05
96 1 3.47786 1.00036 2.19245 1.87915e-05 -3.88342e-05 2.36716e-05 4.92093e-05
97 1 3.93909 3.75415 10.7882 -1.29681e-06 3.36408e-06 1.81586e-05 1.8513e-05
98 1 4.22172 10.7702 9.59385 2.12387e-05 2.0047e-05 -2.74052e-05 4.00501e-05
99 1 0.0294846 8.69574 4.33084 3.39142e-05 3.05411e-05 -1.004e-05 4.67304e-05
100 1 6.43605 9.87889 1.84289 1.57175e-05 3.81213e-05 -5.28999e-05 6.70722e-05
101 1 4.20638 9.19294 5.55702 7.03061e-07 2.67205e-05 3.85227e-05 4.6888e-05
102 1 2.13469 7.55401 5.56023 4.58917e-05 7.36615e-06 -3.23825e-05 5.66474e-05
103 1 11.0896 7.45346 1.95779 -1.01638e-05 3.49144e-05 -2.3558e-05 4.33278e-05
104 1 5.03861 8.19013 10.5694 1.66267e-05 1.02307e-05 -4.46394e-05 4.87215e-05
105 1 4.55176 6.18749 7.87869 7.72179e-05 -2.04781e-05 3.81199e-05 8.8516e-05
106 1 3.02885 5.57769 3.42821 -2.73625e-05 -4.46226e-05 -2.15724e-05 5.66149e-05
107 1 1.49946 5.68672 1.41568 8.38692e-06 8.5566e-06 3.88769e-05 4.06813e-05
108 1 3.48791 6.18426 10.2117 -1.58085e-05 -3.28326e-05 1.69185e-05 4.01762e-05
109 1 4.62652 4.14878 6.2108 2.94092e-05 -2.89515e-06 -6.79217e-06 3.03219e-05
110 1 2.00645 10.2058 5.04212 -2.47796e-05 1.19691e-05 -1.50868e-05 3.13831e-05
111 1 11.0318 10.7845 11.1402 1.86288e-05 -3.30799e-06 -4.12177e-06 1.9364e-05
