ITEM: TIMESTEP
0
ITEM: NUMBER OF ATOMS
161
ITEM: BOX BOUNDS pp pp pp
0.0000000000000000e+00 1.1396901000000000e+01
0.0000000000000000e+00 1.2680864000000000e+01
0.0000000000000000e+00 1.2228524999999999e+01
ITEM: ATOMS id type x y z fx fy fz v_fmag
1 1 0.429476 12.5647 11.6309 -1.21574e-05 3.57906e-05 1.66831e-05 4.1317e-05
2 1 7.36919 3.64883 3.73709 2.25231e-05 2.90914e-05 -2.03734e-05 4.20556e-05
3 1 8.74632 4.92057 5.30656 -3.26438e-05 6.3833e-05 -2.44112e-05 7.57376e-05
4 1 7.53476 3.64173 7.10146 2.6143e-05 -5.60734e-05 3.20158e-05 6.96613e-05
5 1 9.05045 4.97874 8.50801 4.56909e-05 -6.13135e-06 -4.11765e-05 6.18123e-05
6 1 5.73307 4.93633 11.1839 3.98074e-05 1.01387e-05 -2.59e-05 4.85616e-05
7 1 7.15555 6.1937 0.476476 -5.96362e-05 -5.85428e-05 -5.48776e-05 9.99764e-05
8 1 8.56782 7.45681 2.01307 -5.90412e-05 2.5299e-05 -1.74205e-05 6.65536e-05
9 1 8.57377 4.92617 2.00797 -3.77885e-05 -1.89645e-05 5.50383e-05 6.94035e-05
10 1 7.35004 6.18995 3.75887 3.90377e-05 -2.34308e-05 3.65997e-05 5.84165e-05
11 1 7.55657 6.1926 7.0595 2.34148e-05 -2.5096e-05 -6.13191e-06 3.48664e-05
12 1 9.01654 7.47015 8.5555 2.43178e-05 4.9332e-05 -2.12037e-05 5.89457e-05
13 1 7.79252 6.22778 10.3085 2.5527e-05 -2.53341e-05 -4.35692e-05 5.64953e-05
14 1 7.15378 8.7387 0.484836 2.72539e-05 -2.10967e-05 2.87726e-05 4.48966e-05
15 1 8.58104 9.98276 2.03526 -1.31592e-05 1.5545e-06 4.06704e-05 4.27746e-05
16 1 7.33923 8.71219 3.75812 -1.80525e-05 1.76386e-05 -5.10242e-06 2.57497e-05
17 1 8.73608 9.9694 5.29835 -2.274e-05 -2.90965e-06 7.41914e-06 2.4096e-05
18 1 8.75888 7.45159 5.2865 -3.03569e-05 1.78648e-05 -8.6602e-06 3.62725e-05
19 1 7.55606 8.70987 7.0562 2.82189e-06 -1.37833e-05 -1.07319e-05 1.76951e-05
20 1 7.10835 3.65001 0.50557 -1.456e-05 9.86719e-06 4.69576e-05 5.01435e-05
21 1 7.88738 3.78837 10.2441 2.15425e-05 -1.47666e-05 -6.81924e-05 7.30229e-05
22 1 6.31179 9.96669 8.79254 3.41328e-05 3.99955e-05 -2.80765e-05 5.96068e-05
23 1 5.74042 10.0197 11.1842 -6.82985e-05 -4.8307e-05 4.92778e-05 9.70904e-05
24 1 4.51441 11.2809 0.671026 4.60532e-05 -8.07338e-05 2.53783e-05 9.63478e-05
25 1 4.64465 11.2044 4.10088 -1.70927e-05 1.3935e-05 1.04029e-05 2.43838e-05
26 1 6.15206 12.5398 5.51631 1.84277e-05 3.97454e-05 2.5094e-06 4.38813e-05
27 1 4.87705 11.2335 7.23971 1.03156e-05 3.23901e-05 -5.83182e-05 6.75021e-05
28 1 6.18379 12.4619 8.79711 5.6631e-05 3.34785e-05 -3.19203e-05 7.31217e-05
29 1 5.32856 2.53071 11.2907 1.80378e-05 4.52658e-07 -5.0762e-05 5.38735e-05
30 1 4.27289 11.2684 9.70367 1.33581e-05 -1.5507e-06 3.97755e-05 4.19873e-05
31 1 7.56829 1.10199 7.13307 3.07997e-05 -1.45644e-05 2.79717e-05 4.40813e-05
32 1 7.3851 1.78077 11.25 -0.000175887 0.000122837 5.1506e-05 0.000220631
33 1 5.78099 12.6147 11.2112 3.46521e-05 5.58929e-05 -1.09747e-05 6.66725e-05
34 1 8.62887 2.40143 1.95676 -4.05428e-06 1.11191e-05 1.3529e-05 1.79751e-05
35 1 7.35539 1.10924 3.69736 7.11293e-05 -4.85423e-06 6.36118e-05 9.55479e-05
36 1 8.7335 2.38082 5.31874 -1.13426e-05 2.94411e-06 -5.78856e-05 5.90599e-05
37 1 6.34786 2.369 8.95657 2.22033e-05 4.78538e-06 9.61372e-06 2.46639e-05
38 1 8.67989 12.4656 2.06562 -2.40882e-06 -4.37919e-05 -1.15405e-05 4.53511e-05
39 1 9.01912 9.95539 8.5264 9.67421e-06 -3.59381e-05 7.36942e-05 8.25589e-05
40 1 7.78092 8.72744 10.3109 3.28877e-05 -2.52999e-06 -4.50959e-06 3.32917e-05
41 1 7.13515 11.2631 0.532534 3.70056e-06 -9.4081e-06 -3.20318e-06 1.0605e-05
42 1 9.21313 4.95689 11.8717 -1.70242e-05 -3.31269e-05 -3.00455e-05 4.78534e-05
43 1 9.19186 7.48229 11.8598 -2.52406e-05 -5.12864e-05 2.30946e-05 6.16502e-05
44 1 10.6066 8.74775 1.14926 2.91772e-06 -1.95976e-05 6.62732e-06 2.08926e-05
45 1 9.98423 6.18746 3.54763 -9.51025e-06 -2.38467e-05 -4.82845e-05 5.46855e-05
46 1 0.0528233 7.44757 5.03653 3.92698e-05 -2.49396e-07 -2.46007e-05 4.63398e-05
47 1 10.223 6.21737 6.77154 7.63831e-06 1.76839e-05 -3.42276e-05 3.92759e-05
48 1 0.217591 7.48035 8.35407 -6.49724e-05 1.40412e-05 2.11201e-05 6.97468e-05
49 1 10.4849 3.71194 10.055 -4.74976e-06 -4.07455e-05 4.29488e-05 5.93916e-05
50 1 10.4192 6.21493 10.1127 -5.22933e-05 3.7374e-05 1.16073e-05 6.53156e-05
51 1 9.99116 8.71281 3.54581 -3.94096e-05 -6.0398e-05 -0.000121957 0.000141684
52 1 0.150801 9.91034 4.95966 -7.15894e-05 0.000100955 -3.25447e-06 0.000123804
53 1 10.2327 8.70723 6.76528 -1.04213e-05 2.83146e-05 -1.04151e-06 3.01895e-05
54 1 10.3675 11.3114 10.1273 -2.03691e-05 -2.46979e-05 6.70743e-05 7.43226e-05
55 1 10.4044 8.75274 10.1227 1.67592e-05 -4.68925e-05 6.55677e-05 8.23341e-05
56 1 10.0375 11.2316 3.60164 -2.54556e-05 -4.51828e-05 -4.16699e-05 6.65271e-05
57 1 10.3958 11.1318 6.55761 0.000149088 -0.00015385 -0.000155656 0.000264813
58 1 0.430535 10.0171 11.6333 -4.2358e-05 -6.12637e-05 3.35921e-05 8.1706e-05
59 1 10.2518 3.69558 6.7407 8.24605e-05 1.08215e-05 -2.52174e-05 8.69066e-05
60 1 0.052165 4.94945 5.05046 4.68173e-05 2.67371e-05 -2.07108e-05 5.77552e-05
61 1 9.9811 3.66061 3.57111 -4.55097e-06 -4.24471e-05 9.52258e-06 4.37395e-05
62 1 7.36477 11.2508 3.77429 2.71881e-05 -4.91702e-05 3.10426e-05 6.41915e-05
63 1 8.76577 12.5265 5.33492 -6.67765e-06 2.82701e-05 -3.85759e-05 4.82896e-05
64 1 7.50716 11.2455 7.07459 -4.57638e-06 2.14441e-05 2.20426e-05 3.10913e-05
65 1 8.139 0.71327 9.57458 0.000193426 -0.000180251 -0.000233648 0.000352839
66 1 7.76026 11.2012 10.2957 1.36796e-05 -1.13878e-06 -2.87443e-05 3.18538e-05
67 1 10.606 11.2862 1.12191 -2.95894e-05 1.81839e-05 2.61953e-05 4.35015e-05
68 1 10.3053 1.16999 6.70756 6.5812e-05 -1.61803e-05 -2.74497e-05 7.31198e-05
69 1 9.07191 12.6528 11.8394 -1.71275e-06 -1.03055e-05 -1.17356e-05 1.57118e-05
70 1 10.6308 1.12161 1.16297 -2.30349e-05 2.06266e-05 8.74308e-06 3.21326e-05
71 1 0.636699 2.39531 2.68957 6.20839e-06 -1.12681e-05 -3.92789e-05 4.13321e-05
72 1 9.99249 1.13259 3.58234 4.98648e-06 -2.50999e-05 1.27972e-05 2.86119e-05
73 1 0.0806411 2.42479 5.0351 -3.86708e-05 -3.73738e-05 -1.6992e-05 5.64e-05
74 1 9.12944 2.48407 8.4727 7.12886e-05 6.13387e-05 -6.76115e-05 0.000115827
75 1 9.43637 2.49288 11.8255 6.55844e-05 7.51501e-05 4.54738e-05 0.000109621
76 1 6.97778 0.964653 0.997916 -7.0616e-06 -2.06936e-05 4.47689e-05 4.98231e-05
77 1 10.6631 3.71529 1.20288 -8.27955e-05 5.23857e-06 -2.73225e-05 8.73445e-05
78 1 10.6224 6.22356 1.16336 -4.45148e-05 -2.74301e-05 2.85267e-05 5.9563e-05
79 1 4.9089 8.71123 7.27547 -3.04667e-05 -6.91568e-06 8.13666e-06 3.22839e-05
80 1 9.34711 12.2905 8.15823 -0.000254262 0.000211814 0.000322265 0.000461919
81 1 6.14184 9.97362 5.5277 2.00518e-05 -3.04132e-05 2.47424e-05 4.40366e-05
82 1 5.9079 9.97242 2.2527 -1.34211e-06 -1.5208e-05 7.41289e-06 1.69716e-05
83 1 3.25839 2.40376 2.49994 -1.40725e-07 -2.24e-05 -5.08203e-05 5.55381e-05
84 1 2.08383 1.12918 4.20142 3.85739e-05 -2.72367e-05 -2.17991e-05 5.20095e-05
85 1 3.49403 2.41224 5.75285 2.57573e-06 -1.26616e-05 2.46383e-06 1.31538e-05
86 1 0.274264 2.41026 8.2993 -3.84253e-05 3.89637e-05 -5.50659e-06 5.5e-05
87 1 1.65223 3.68627 9.8463 -2.98464e-05 2.48431e-05 -2.86441e-05 4.82542e-05
88 1 1.87226 6.20835 0.934386 8.95919e-05 5.2975e-06 -1.55833e-07 8.97485e-05
89 1 3.27642 4.97376 2.50438 6.16273e-05 1.3536e-05 2.58774e-05 6.81966e-05
90 1 1.84988 1.12739 0.96464 2.48376e-06 -1.85097e-05 -1.23243e-05 2.23756e-05
91 1 2.07796 3.68103 4.21314 3.75048e-05 -1.37479e-05 3.33194e-06 4.00839e-05
92 1 2.86801 4.9637 8.11113 -3.11923e-05 3.25781e-05 4.25398e-05 6.19994e-05
93 1 4.29645 6.21514 9.66612 4.79102e-06 3.55666e-06 -2.92646e-05 2.98667e-05
94 1 0.450053 4.94252 11.6424 3.83742e-05 -3.13019e-05 8.71128e-06 5.0282e-05
95 1 0.439012 7.47711 11.6406 2.94592e-05 -3.63012e-05 1.85382e-05 5.0292e-05
96 1 3.31636 7.47283 2.4384 1.1636e-05 3.61839e-05 9.77731e-06 3.92462e-05
97 1 2.08828 6.21989 4.2158 -5.59033e-05 -1.51818e-05 -3.39186e-05 6.71277e-05
98 1 3.49501 7.45234 5.75866 -7.14603e-05 5.55726e-06 -2.5939e-05 7.62253e-05
99 1 3.49942 4.94043 5.75497 -3.03224e-06 -1.18323e-05 1.51041e-05 1.9425e-05
100 1 2.87184 7.47707 8.1436 -4.22402e-05 2.35199e-05 3.14796e-05 5.76922e-05
101 1 1.65758 1.13331 9.85631 2.51456e-05 -1.29269e-05 -1.34177e-05 3.1296e-05
102 1 4.45483 1.11208 0.782628 5.57977e-05 2.55106e-05 -3.36668e-05 6.9983e-05
103 1 10.481 1.12567 10.0288 4.50938e-05 4.44542e-06 -3.13177e-05 5.50819e-05
104 1 0.477356 2.41276 11.6324 -2.96607e-05 1.75027e-05 -5.82238e-06 3.49285e-05
105 1 0.637985 12.5242 2.66721 2.39858e-06 2.34091e-05 2.48469e-07 2.35329e-05
106 1 1.84807 3.6913 0.978272 2.55499e-05 7.02612e-05 -6.21721e-05 9.72358e-05
107 1 1.47096 3.68515 6.58825 -1.06419e-05 2.76554e-05 1.6476e-05 3.39047e-05
108 1 0.652411 4.96645 2.70485 1.89264e-05 -3.73504e-05 -1.32419e-05 4.39159e-05
109 1 0.241085 4.96139 8.31217 -2.9341e-05 -1.4092e-05 2.55276e-05 4.13659e-05
110 1 1.49254 1.13805 6.57746 -2.31935e-05 -3.69775e-05 6.88117e-06 4.41885e-05
111 1 1.64355 6.20784 9.87583 -7.91939e-05 -4.03691e-05 5.641e-05 0.000105278
112 1 1.4534 6.21954 6.59528 9.43723e-06 1.01111e-05 -1.51173e-05 2.04897e-05
113 1 1.63505 8.74266 9.88202 6.09418e-05 5.21669e-05 3.56375e-05 8.778e-05
114 1 0.668234 10.0075 2.6215 -2.27325e-05 -1.17009e-05 -8.68276e-05 9.05136e-05
115 1 0.205831 10.0219 8.35775 -4.98769e-05 -2.27678e-05 1.98862e-05 5.83227e-05
116 1 1.64126 11.2835 9.89371 -3.04511e-05 -3.00121e-05 5.38415e-05 6.87525e-05
117 1 0.112275 12.5581 5.01797 -1.74316e-05 -2.08188e-06 1.92452e-05 2.60494e-05
118 1 0.323403 12.5264 8.28302 7.68058e-05 -1.2095e-05 -3.43851e-05 8.50162e-05
119 1 0.653487 7.48534 2.66992 2.54261e-07 4.28369e-05 -1.49463e-05 4.53702e-05
120 1 4.29712 8.73819 9.67447 -2.42569e-05 -1.83118e-05 -5.16497e-05 5.99284e-05
121 1 3.06974 7.46934 11.3979 -7.70346e-06 -3.36212e-05 3.9259e-05 5.22589e-05
122 1 1.87713 8.73618 0.919524 1.67408e-05 6.0843e-06 2.16269e-05 2.80178e-05
123 1 2.96882 2.41509 11.4402 1.68169e-06 3.47845e-07 -3.89567e-05 3.89945e-05
124 1 4.40515 3.73679 0.804083 -1.73647e-05 2.44692e-05 8.94733e-05 9.43703e-05
125 1 5.92225 4.95699 2.24636 3.40295e-05 -5.15347e-06 1.04036e-05 3.59555e-05
126 1 4.6922 3.69454 4.03777 1.26911e-05 3.58346e-05 1.14221e-05 3.96944e-05
127 1 6.15898 4.91676 5.52419 2.02203e-05 4.76614e-05 9.3473e-06 5.26103e-05
128 1 4.95328 3.6428 7.2735 -4.76826e-05 -1.20857e-05 -2.87579e-05 5.69799e-05
129 1 6.33217 4.93721 8.8091 1.16513e-05 -2.6724e-05 -3.87513e-05 4.84932e-05
130 1 4.24487 3.71821 9.60724 6.58482e-05 2.95398e-05 -6.33608e-05 9.60374e-05
131 1 3.06758 4.93348 11.4011 5.5054e-05 -1.15102e-05 1.70253e-05 5.87647e-05
132 1 5.92553 7.46291 2.22097 -2.00745e-05 1.30562e-05 1.1713e-05 2.66579e-05
133 1 4.72484 6.20968 4.00784 2.9296e-05 2.85318e-05 3.65921e-05 5.48753e-05
134 1 6.14238 7.45134 5.53016 -1.33321e-05 -2.79151e-05 4.18332e-05 5.20289e-05
135 1 4.92352 6.18519 7.27496 1.67109e-05 3.31419e-05 2.47149e-06 3.71988e-05
136 1 6.33894 7.45811 8.79889 -1.10342e-05 9.61431e-06 4.14654e-06 1.52113e-05
137 1 5.74194 7.47217 11.1807 5.10053e-06 4.67132e-06 -4.45121e-06 8.22496e-06
138 1 4.51491 8.73968 0.675287 -2.80442e-05 3.00393e-05 -3.6324e-05 5.48477e-05
139 1 4.50419 6.21184 0.686867 2.79635e-05 -3.48242e-05 4.926e-05 6.64924e-05
140 1 2.8811 2.40117 8.11798 -3.24182e-05 -6.39449e-05 1.54867e-05 7.33467e-05
141 1 6.17446 2.37744 5.50554 -1.79855e-06 -5.61879e-06 3.68413e-05 3.73107e-05
142 1 4.67455 1.13515 4.04516 1.27979e-05 1.643e-05 9.00473e-06 2.26896e-05
143 1 3.31826 10.0051 2.43139 1.03617e-05 3.48171e-06 9.07701e-05 9.14259e-05
144 1 2.12396 8.715 4.17402 -2.61547e-05 -2.35927e-05 1.33093e-05 3.76539e-05
145 1 3.45607 9.94958 5.77242 -2.6642e-05 5.93793e-06 4.54163e-06 2.76709e-05
146 1 1.44366 8.72339 6.61199 -5.66273e-05 -1.12786e-05 1.53516e-06 5.776e-05
147 1 2.86115 10.001 8.1597 -3.28001e-05 5.47248e-05 5.86139e-05 8.66385e-05
148 1 3.06449 10.004 11.407 4.94212e-05 2.18145e-05 -4.36043e-05 6.94238e-05
149 1 1.87341 11.2836 0.911439 2.71116e-05 -3.07487e-06 7.94865e-06 2.84196e-05
150 1 3.26185 12.5174 2.48739 8.38874e-05 2.24071e-05 -2.44437e-05 9.02035e-05
151 1 2.09172 11.2521 4.19293 1.74133e-06 3.99979e-06 -1.88514e-06 4.7523e-06
152 1 3.48224 12.5478 5.75964 -2.79172e-05 4.31038e-05 -1.83665e-05 5.45402e-05
153 1 1.49582 11.2477 6.57267 -8.8539e-05 1.94236e-05 -1.40565e-05 9.17279e-05
154 1 2.89858 12.5332 8.1334 -1.75084e-05 -4.18638e-06 -3.39144e-05 3.83961e-05
155 1 3.07208 12.5696 11.4156 5.24356e-06 6.55611e-05 -9.1122e-06 6.63987e-05
156 1 5.74671 12.4034 2.42591 1.11864e-08 5.80155e-05 -1.9815e-05 6.13061e-05
157 1 4.93957 1.14923 7.27082 -4.81988e-05 -4.42895e-05 -5.19397e-05 8.35609e-05
158 1 4.26153 1.13814 9.66987 -9.63444e-06 -6.09618e-05 2.96133e-05 6.84552e-05
159 1 5.81221 2.46646 2.32217 -6.9785e-06 -3.19741e-06 -1.00133e-05 1.2617e-05
160 1 4.71169 8.7131 4.00544 -1.89448e-05 1.46437e-05 7.46796e-05 7.84244e-05
161 1 9.17177 10.0307 11.8664 -1.75042e-05 -3.77238e-06 3.803e-05 4.20346e-05
