ITEM: TIMESTEP
0
ITEM: NUMBER OF ATOMS
150
ITEM: BOX BOUNDS pp pp pp
0.0000000000000000e+00 1.1396901000000000e+01
0.0000000000000000e+00 1.2680864000000000e+01
0.0000000000000000e+00 1.2228524999999999e+01
ITEM: ATOMS id type x y z fx fy fz v_fmag
1 1 11.3601 1.08752 4.00085 1.15592e-05 5.49661e-06 -8.44703e-06 1.53356e-05
2 1 5.61021 10.3211 3.36685 -1.97582e-05 -1.05458e-05 4.55353e-05 5.07451e-05
3 1 6.00718 11.3962 5.57921 -6.52345e-06 2.49521e-05 -1.39104e-05 2.93029e-05
4 1 4.76058 10.4819 7.47469 1.55097e-05 2.5299e-06 1.47014e-06 1.57833e-05
5 1 7.62114 11.0714 9.60453 7.90092e-05 -1.54166e-05 -3.16536e-05 8.6499e-05
6 1 6.35839 10.1666 11.5014 3.77447e-07 -2.16838e-05 8.06039e-05 8.34705e-05
7 1 4.83427 0.112438 3.76599 -1.8209e-05 -1.24963e-05 -2.79559e-05 3.56266e-05
8 1 6.87309 11.2171 1.46825 -1.08044e-05 6.41906e-06 -6.5811e-05 6.70002e-05
9 1 6.45414 12.4598 7.78427 1.87947e-05 3.62747e-06 -1.02292e-05 2.17034e-05
10 1 9.35603 0.395311 9.88483 3.28871e-05 -1.71221e-06 -1.20647e-05 3.50721e-05
11 1 0.79445 0.980568 12.0658 -1.16868e-05 -1.89776e-05 5.29854e-06 2.29086e-05
12 1 8.51463 0.498232 1.77283 -1.5062e-05 1.78943e-05 1.65275e-05 2.86396e-05
13 1 8.92055 1.57671 3.99121 -1.02816e-05 -3.49701e-06 -1.55517e-05 1.89683e-05
14 1 10.1119 0.153199 5.82775 -8.9166e-06 -9.67541e-06 9.64127e-06 1.63118e-05
15 1 10.6562 1.29623 7.95875 2.72425e-07 4.47517e-05 1.45702e-05 4.70647e-05
16 1 5.65947 12.6263 11.8823 3.64822e-05 -2.29293e-05 9.23404e-06 4.40678e-05
17 1 4.67002 8.19682 11.1948 -4.39215e-05 1.78588e-05 3.88429e-05 6.12928e-05
18 1 5.93229 9.09479 9.29949 1.27292e-05 1.78593e-06 -5.15194e-05 5.30987e-05
19 1 5.50371 8.02735 7.09439 -1.9402e-05 -5.82526e-06 -2.01451e-06 2.03575e-05
20 1 9.00801 3.86773 0.291929 -1.18425e-05 -1.48539e-05 -1.58943e-05 2.47692e-05
21 1 7.72636 2.9881 2.1789 -1.96842e-05 -6.64487e-06 1.03583e-05 2.32146e-05
22 1 8.26744 4.03973 4.36903 1.78419e-05 -9.798e-06 2.0263e-05 2.87215e-05
23 1 4.58718 3.61405 6.35796 -2.54818e-05 7.94394e-06 -2.07587e-05 3.38135e-05
24 1 7.43491 4.20349 8.47934 -8.74082e-07 1.48752e-05 -8.54409e-06 1.71766e-05
25 1 8.60042 2.82668 10.2961 2.80724e-05 2.74393e-05 2.58871e-05 4.70226e-05
26 1 8.33469 6.28523 0.685411 1.89749e-05 3.42927e-05 -3.52171e-05 5.26905e-05
27 1 7.0555 5.42996 2.57483 1.3487e-05 1.06941e-05 3.69132e-05 4.0729e-05
28 1 7.53654 6.48703 4.78213 4.35283e-05 1.19991e-05 -5.70991e-05 7.27943e-05
29 1 6.27372 5.57747 6.67794 -4.74648e-05 -6.82925e-06 7.44388e-06 4.85279e-05
30 1 6.66283 6.64277 8.90615 -3.6693e-05 -1.51207e-05 -3.11358e-05 5.04426e-05
31 1 5.37107 5.73841 10.8184 -1.49978e-05 2.62359e-05 -6.66641e-06 3.09467e-05
32 1 7.54698 8.76167 1.08673 -8.33549e-06 1.89923e-05 -4.19762e-05 4.68209e-05
33 1 6.35092 7.86207 2.98391 3.42507e-05 -2.29196e-06 2.10867e-05 4.02866e-05
34 1 6.77029 8.93898 5.1874 -4.26674e-05 6.1932e-06 -4.52792e-05 6.25226e-05
35 1 10.2845 4.82278 10.7049 -2.16905e-05 8.40327e-06 4.02531e-05 4.6491e-05
36 1 10.1591 2.42843 2.09371 7.34569e-06 -2.13485e-05 -4.29511e-06 2.29819e-05
37 1 10.6977 3.56785 4.18708 5.48975e-05 -2.29522e-05 1.68307e-05 6.1837e-05
38 1 7.04875 3.12734 6.26567 -2.29622e-05 1.29714e-05 -6.82671e-06 2.72419e-05
39 1 8.77742 9.67948 11.4169 4.33704e-05 -1.60575e-05 -3.44281e-06 4.63755e-05
40 1 7.26073 12.2949 3.67972 -5.03358e-05 1.73921e-06 4.63448e-05 6.84439e-05
41 1 8.87947 11.9737 7.72051 2.69404e-05 2.82281e-06 -3.75888e-06 2.73475e-05
42 1 8.08473 12.1414 11.7894 -1.15031e-05 -1.02987e-05 2.52511e-05 2.95973e-05
43 1 10.9588 0.0181795 1.72404 -2.51461e-05 1.6037e-05 -6.64232e-06 3.05554e-05
44 1 9.5573 2.63282 6.15152 2.66728e-07 -6.49513e-06 8.54154e-06 1.07339e-05
45 1 0.139713 5.66526 8.75098 -4.56043e-07 2.79281e-05 -2.47217e-05 3.73008e-05
46 1 10.3706 7.05001 6.90733 -2.71398e-05 -4.25429e-05 -3.75498e-06 5.06021e-05
47 1 10.7949 8.14065 9.15825 -3.21566e-06 -4.72198e-05 -1.35e-05 4.92169e-05
48 1 9.54173 7.2207 11.033 2.29246e-05 -1.35876e-05 4.90333e-05 5.5807e-05
49 1 10.5254 9.32739 3.10423 4.35401e-05 8.50498e-06 3.66034e-05 5.75142e-05
50 1 10.8757 10.3819 5.38267 -3.70092e-05 7.90674e-06 1.19087e-05 3.96738e-05
51 1 9.61952 9.51389 7.31619 -1.67046e-05 1.93904e-05 1.01528e-05 2.75338e-05
52 1 11.2141 9.26369 11.4126 -2.00853e-05 -3.17026e-05 4.22621e-05 5.65204e-05
53 1 9.69059 11.7989 3.60726 -6.61855e-05 1.62309e-05 2.16545e-05 7.15044e-05
54 1 10.0466 10.5899 9.53898 8.80539e-06 -1.5576e-05 -2.4225e-05 3.01164e-05
55 1 8.21307 1.7641 8.06409 2.95277e-05 -3.21787e-06 -1.60889e-05 3.37801e-05
56 1 7.18864 10.0008 7.4005 -1.72417e-05 2.19884e-05 4.68993e-05 5.45922e-05
57 1 8.05968 9.82379 3.27636 2.5162e-06 9.99792e-06 2.17396e-05 2.40603e-05
58 1 9.87043 3.74086 8.42352 -9.1496e-06 2.23514e-05 3.99883e-05 4.67158e-05
59 1 11.0414 2.38459 10.2619 -1.26733e-06 -2.8584e-06 4.08467e-05 4.09662e-05
60 1 10.9386 5.88478 0.789025 1.14015e-05 -3.7109e-06 3.41217e-05 3.61671e-05
61 1 9.54775 4.90271 2.46407 -1.52688e-05 7.2026e-06 4.5846e-05 4.88556e-05
62 1 9.98059 6.01456 4.64181 1.77093e-06 1.41364e-05 -2.15871e-05 2.58645e-05
63 1 8.72236 5.09387 6.57437 -3.4796e-05 -1.11957e-06 3.79829e-05 5.15239e-05
64 1 9.10614 6.1642 8.8185 -2.9145e-05 -3.64137e-05 -3.81705e-05 6.02692e-05
65 1 7.82521 5.2554 10.7088 -1.2597e-05 -2.14039e-05 1.12344e-05 2.72584e-05
66 1 9.9464 8.25479 0.976594 2.03522e-05 3.47501e-05 -2.77163e-05 4.88874e-05
67 1 8.83841 7.351 2.88894 2.96978e-05 -3.87962e-05 7.38427e-05 8.8543e-05
68 1 9.2087 8.46782 5.08508 4.0777e-06 -2.43525e-05 -2.9943e-05 3.88105e-05
69 1 7.94179 7.54637 6.99712 -1.9509e-05 -6.41254e-06 3.4871e-06 2.08298e-05
70 1 8.36012 8.6082 9.21457 -9.38307e-08 -1.08424e-05 -4.98347e-05 5.10006e-05
71 1 7.10446 7.69632 11.1178 4.98957e-07 -9.03909e-07 -3.12492e-05 3.12663e-05
72 1 9.35686 10.7106 1.38086 1.84389e-05 7.13811e-06 -2.97013e-05 3.56807e-05
73 1 8.4375 10.9044 5.50323 -1.16859e-05 2.12404e-05 -2.76286e-05 3.67567e-05
74 1 7.69332 0.685729 5.88892 3.8462e-05 2.65271e-06 3.22375e-05 5.02555e-05
75 1 6.48718 2.08911 4.0735 1.7794e-05 3.2433e-05 -5.19961e-05 6.38132e-05
76 1 6.07811 1.02046 1.86506 -2.50197e-05 4.37938e-05 -6.37977e-06 5.08388e-05
77 1 3.38356 7.35723 0.864275 2.67402e-06 1.24396e-05 -7.08353e-05 7.1969e-05
78 1 1.99882 6.38757 2.59098 4.93489e-05 6.6782e-06 0.000132202 0.000141271
79 1 2.64866 7.40628 4.89841 1.89982e-05 2.10422e-05 -3.17675e-05 4.25779e-05
80 1 1.38661 6.53841 6.80317 -4.50048e-05 -3.81103e-05 2.22163e-05 6.30189e-05
81 1 1.80757 7.6151 9.05417 -1.9236e-05 -1.54648e-05 -1.0459e-05 2.68062e-05
82 1 1.30576 4.30877 10.6288 -9.32316e-06 4.01196e-06 2.55515e-05 2.74935e-05
83 1 2.62895 9.82032 1.26153 2.77705e-06 5.13165e-06 -4.87712e-05 4.9119e-05
84 1 1.51634 8.859 3.16364 -7.40522e-06 3.55389e-05 6.66359e-05 7.58828e-05
85 1 1.9057 9.9093 5.34589 -4.26251e-05 5.90817e-06 2.58208e-05 5.01848e-05
86 1 0.639292 8.98998 7.21399 2.03039e-06 1.28197e-05 4.33515e-05 4.52529e-05
87 1 1.07328 10.0862 9.46694 3.51407e-05 2.31851e-05 -3.68816e-05 5.59703e-05
88 1 1.98999 12.2594 1.64305 -1.18926e-05 -3.17973e-05 -2.67839e-05 4.32421e-05
89 1 0.724778 11.2699 3.45369 1.91969e-06 -8.65378e-07 2.02875e-05 2.03965e-05
90 1 1.14061 12.3514 5.72763 1.34086e-05 2.24517e-05 2.94079e-06 2.63157e-05
91 1 2.75757 12.0304 9.78929 3.75037e-05 -5.41526e-06 -6.08821e-06 3.83787e-05
92 1 3.73673 3.7821 10.4819 -7.89908e-06 -1.10228e-05 -7.14123e-07 1.35797e-05
93 1 1.46273 11.155 11.7382 3.50967e-05 8.87751e-06 3.5815e-05 5.09245e-05
94 1 2.5607 5.17233 8.69058 -1.67383e-05 2.11231e-06 -1.7111e-05 2.40295e-05
95 1 3.37485 4.99821 4.54293 2.63785e-05 4.16046e-06 -2.46351e-05 3.63321e-05
96 1 2.47133 2.87854 0.155918 2.55379e-05 9.78973e-06 -3.71231e-05 4.61102e-05
97 1 0.89516 3.19927 8.30331 -1.17254e-06 1.4042e-05 7.67917e-05 7.80738e-05
98 1 0.0863747 3.48253 0.360539 -1.10174e-05 -7.43805e-06 5.7993e-05 5.9497e-05
99 1 0.958295 5.44531 4.51457 2.99971e-05 -3.7342e-05 1.06064e-05 4.90586e-05
100 1 0.555582 6.77834 11.0049 -2.25019e-05 1.45754e-05 5.82974e-05 6.41668e-05
101 1 0.214787 7.89492 4.94171 2.43058e-05 -5.74437e-06 -1.28681e-05 2.80955e-05
102 1 0.9403 7.94413 0.994737 -1.02027e-05 1.17428e-05 1.28922e-05 2.02039e-05
103 1 2.05635 1.83631 10.1481 -2.42002e-06 -3.99469e-06 -5.02991e-07 4.69756e-06
104 1 4.90308 2.40855 0.0573941 -4.97311e-06 3.36412e-06 -3.88065e-05 3.92682e-05
105 1 1.19234 1.99551 2.09715 1.5886e-05 6.0854e-06 1.44286e-05 2.23065e-05
106 1 1.6072 2.97222 4.38307 -2.15438e-05 -3.95778e-06 -5.23461e-05 5.67443e-05
107 1 2.78595 1.6586 6.08208 -3.19147e-06 -4.25292e-05 5.28797e-05 6.79352e-05
108 1 3.3343 2.72229 8.26322 -2.7245e-05 -2.68815e-05 -3.38844e-05 5.11181e-05
109 1 4.0091 4.87315 0.503017 -1.0592e-05 2.09672e-05 -3.76712e-05 4.43952e-05
110 1 2.66901 3.9923 2.38545 -4.92877e-05 3.63522e-05 -3.20233e-05 6.91104e-05
111 1 11.1424 4.57983 6.47204 4.38907e-06 -4.20871e-05 3.63302e-05 5.57716e-05
112 1 11.3036 11.4545 7.63484 4.09856e-06 -2.38095e-05 2.09866e-05 3.2002e-05
113 1 1.61675 0.730108 7.95018 8.0824e-05 2.82291e-05 -4.71978e-05 9.77601e-05
114 1 4.48877 1.33163 10.071 3.36385e-05 -3.88179e-06 -1.62668e-05 3.75663e-05
115 1 4.3334 9.416 5.26366 -7.19168e-07 3.76574e-05 2.60248e-06 3.77541e-05
116 1 3.06882 8.49681 7.1436 -5.34215e-05 -1.60659e-05 2.52504e-05 6.12336e-05
117 1 3.50347 9.57774 9.36486 2.52467e-05 1.23868e-05 5.54455e-06 2.8663e-05
118 1 2.24156 8.70855 11.2667 9.65932e-06 -9.71765e-06 5.09662e-05 5.27758e-05
119 1 4.41943 11.7304 1.55619 -2.54723e-05 -1.89772e-05 -1.28329e-05 3.42587e-05
120 1 3.1799 10.8273 3.46377 -1.93954e-06 -5.0666e-06 1.09696e-06 5.53494e-06
121 1 3.58025 11.8879 5.67411 -1.93079e-06 1.35407e-05 -2.00562e-05 2.42761e-05
122 1 2.33208 10.9619 7.5611 -4.13152e-05 5.76362e-07 1.11648e-05 4.28011e-05
123 1 5.1936 11.5528 9.68569 3.14575e-05 -2.01969e-05 -3.42933e-05 5.07298e-05
124 1 3.92118 10.6587 11.5852 2.0043e-06 -4.03457e-06 -2.31036e-05 2.35387e-05
125 1 2.40656 0.574067 3.85381 5.59765e-06 -2.77341e-06 -3.01888e-05 3.08284e-05
126 1 4.0288 0.258424 7.88199 2.68747e-05 -3.65496e-06 -4.30458e-05 5.08778e-05
127 1 3.22487 0.441107 11.9667 8.67086e-07 -2.11612e-05 -1.57966e-05 2.64212e-05
128 1 6.92389 0.85151 9.97322 -8.37786e-08 -5.92865e-06 2.36989e-06 6.38531e-06
129 1 9.77075 1.44165 12.1115 1.12236e-07 1.43149e-05 6.42263e-05 6.58024e-05
130 1 3.90505 8.36319 3.05548 4.85799e-05 -1.20139e-05 3.21228e-05 5.9466e-05
131 1 0.356478 12.5667 9.84833 1.25365e-05 -1.27013e-05 -1.14667e-07 1.78465e-05
132 1 5.10275 9.27812 1.16563 5.82766e-05 1.41209e-05 -8.37383e-05 0.000102993
133 1 4.2234 7.11912 9.00695 -2.02583e-05 -1.50502e-06 -3.09977e-06 2.05493e-05
134 1 7.33772 1.91452 12.1928 -4.69997e-07 1.46566e-05 1.44165e-05 2.05639e-05
135 1 3.63665 1.52328 1.95903 -4.28393e-07 5.87516e-06 -1.29886e-05 1.4262e-05
136 1 4.03974 2.56894 4.16604 2.23463e-05 -3.2567e-05 -0.000102816 0.000110141
137 1 5.24851 1.17746 5.97317 -1.39836e-05 -2.47407e-05 1.08442e-05 3.04178e-05
138 1 5.76503 2.23146 8.16464 -1.42106e-05 -9.77373e-07 -1.07359e-05 1.7837e-05
139 1 6.53145 4.37111 0.379997 4.13328e-06 2.76308e-05 -3.13023e-05 4.19569e-05
140 1 5.23591 3.50781 2.27139 -3.5251e-05 8.38597e-06 3.78334e-05 5.23863e-05
141 1 5.81714 4.53025 4.46358 -3.69796e-06 -1.83942e-05 -3.02004e-05 3.5554e-05
142 1 2.1649 4.13485 6.46251 -1.87778e-05 -3.02852e-05 2.61011e-05 4.41709e-05
143 1 4.99823 4.68303 8.57816 -2.49269e-05 3.46459e-06 -1.94642e-05 3.18152e-05
144 1 6.16724 3.29726 10.3808 -1.23597e-06 1.36207e-05 -1.66194e-05 2.15234e-05
145 1 5.83983 6.80682 0.785625 -1.96354e-05 3.0866e-05 -1.2581e-05 3.86851e-05
146 1 4.54842 5.94146 2.66912 3.18669e-05 -1.14599e-05 8.22496e-07 3.38748e-05
147 1 5.09144 6.96786 4.87664 -4.10759e-06 1.22025e-05 -9.15205e-06 1.57966e-05
148 1 3.82959 6.06396 6.77079 -4.00437e-05 -2.26415e-05 2.18601e-06 4.60534e-05
149 1 2.9236 6.22578 10.9516 -1.09526e-05 -8.30308e-06 -2.32933e-06 1.39401e-05
150 1 10.4884 11.6916 11.7291 3.8031e-05 -2.78745e-06 -2.39264e-05 4.50178e-05
