ITEM: TIMESTEP
0
ITEM: NUMBER OF ATOMS
118
ITEM: BOX BOUNDS pp pp pp
0.0000000000000000e+00 1.1464695000000001e+01
0.0000000000000000e+00 1.1317634999999999e+01
0.0000000000000000e+00 1.1648808000000001e+01
ITEM: ATOMS id type x y z fx fy fz v_fmag
1 1 2.22389 10.0917 0.899463 1.35635e-05 7.07262e-06 -1.08086e-05 1.87301e-05
2 1 8.46697 5.74443 10.5778 1.14167e-05 -2.71146e-05 1.39325e-05 3.25524e-05
3 1 8.60884 4.37542 8.33026 3.31975e-07 -1.27029e-06 -2.94669e-05 2.94961e-05
4 1 7.60194 5.41428 6.2241 -1.00237e-06 3.41599e-06 5.35026e-05 5.36209e-05
5 1 7.65964 4.03683 4.00159 -9.0021e-06 5.06892e-06 -2.64387e-05 2.83855e-05
6 1 9.08381 4.82021 1.99774 1.5625e-05 -1.14414e-05 -2.02294e-06 1.94714e-05
7 1 4.21175 4.52491 11.6455 4.28879e-05 3.82798e-05 -2.85276e-05 6.41758e-05
8 1 9.19903 3.44908 11.443 1.56836e-05 -1.0621e-05 -2.26118e-05 2.9497e-05
9 1 7.14244 2.03209 7.811 -7.57809e-06 5.36041e-05 -2.37866e-05 5.91323e-05
10 1 8.7157 3.02938 6.09357 -1.48244e-05 -1.12595e-05 -1.21269e-05 2.22172e-05
11 1 6.15986 1.93617 3.66034 -4.48284e-06 -2.63462e-05 -2.30939e-05 3.53207e-05
12 1 7.72892 2.62035 1.77189 -5.25647e-06 -2.60751e-06 1.3038e-05 1.42976e-05
13 1 7.81177 1.25089 11.2049 1.04853e-05 2.1365e-05 5.63063e-06 2.44562e-05
14 1 5.38009 0.398734 8.89402 2.79741e-05 -1.18044e-05 2.24791e-05 3.77783e-05
15 1 7.13854 0.797832 5.71285 -2.07584e-06 3.47084e-05 1.01309e-05 3.62162e-05
16 1 8.79086 0.229886 1.72729 -2.91636e-05 -5.20962e-07 1.11361e-05 3.12218e-05
17 1 8.86959 10.2083 11.1197 -7.66714e-06 1.21286e-05 3.16843e-05 3.47819e-05
18 1 6.37545 9.2072 8.66562 -2.92457e-05 -9.64265e-06 -3.14312e-05 4.40024e-05
19 1 7.90884 9.90995 6.62861 2.50912e-05 -4.59969e-06 -5.34855e-07 2.5515e-05
20 1 7.13038 10.8345 3.59053 2.61278e-05 1.03214e-05 -3.38122e-06 2.82953e-05
21 1 0.594193 9.29122 2.72226 5.55925e-06 1.18327e-05 -1.22536e-05 1.79184e-05
22 1 4.81522 8.49669 10.5624 2.52643e-05 -3.76549e-05 4.04087e-05 6.07375e-05
23 1 4.88041 7.11506 8.3317 1.79277e-05 1.93534e-05 -1.47238e-05 3.02117e-05
24 1 6.42299 7.89655 6.47902 -2.09188e-05 3.98885e-05 4.10878e-05 6.09664e-05
25 1 3.87447 6.91119 4.17191 -3.6658e-05 1.40803e-05 2.77699e-07 3.92701e-05
26 1 5.56299 7.9136 2.50177 -2.39247e-05 5.27434e-05 7.58093e-05 9.54008e-05
27 1 8.2093 7.04911 1.24285 -1.75373e-05 2.16972e-05 1.59835e-05 3.21527e-05
28 1 7.97164 8.58167 4.24445 -2.5819e-05 -4.18997e-06 -3.71955e-05 4.54718e-05
29 1 6.45092 6.6028 4.40936 -1.81841e-05 3.97229e-05 -7.81102e-05 8.94973e-05
30 1 9.00201 7.58204 6.4884 -3.86385e-06 9.1493e-06 2.32672e-05 2.52982e-05
31 1 9.9452 7.89489 10.9923 1.2672e-05 1.28071e-06 6.97537e-07 1.27556e-05
32 1 10.0582 6.56703 8.68359 1.56767e-05 1.02067e-05 1.68449e-05 2.51732e-05
33 1 10.4775 9.73766 6.93092 6.73892e-06 2.69325e-05 1.20278e-05 3.02562e-05
34 1 9.02124 6.23261 4.19901 -1.76773e-05 1.20442e-05 -1.56005e-07 2.1391e-05
35 1 10.5406 8.42467 4.62773 1.39691e-05 -5.38782e-06 -6.98375e-06 1.65208e-05
36 1 10.5523 7.10878 2.35688 5.17838e-06 -1.23637e-05 -2.61057e-05 2.93459e-05
37 1 10.772 4.30953 9.66419 -1.67365e-07 2.82588e-06 2.42912e-05 2.44556e-05
38 1 10.1499 5.2215 6.41901 -8.27086e-06 3.89297e-05 -1.56483e-05 4.27645e-05
39 1 10.2127 3.8785 4.18034 -1.55915e-05 -1.09107e-05 -3.07117e-06 1.92762e-05
40 1 0.238241 4.74004 2.32851 2.60676e-05 -1.59704e-05 2.05479e-05 3.68347e-05
41 1 6.84043 4.37883 0.287593 -9.96398e-07 -5.22303e-06 7.42328e-06 9.13115e-06
42 1 9.29806 2.08449 9.26311 -9.21459e-06 -1.80418e-05 -2.63601e-05 3.32456e-05
43 1 5.66635 6.74379 0.42223 -1.10936e-05 -3.16687e-05 -0.000151692 0.000155359
44 1 10.8636 2.94407 7.46054 -2.04804e-05 6.6282e-06 -1.60835e-05 2.68712e-05
45 1 10.2647 2.51493 1.97293 -2.14409e-05 2.9637e-05 -1.10307e-05 3.82066e-05
46 1 10.3101 1.10578 11.4694 -3.4269e-08 -8.0061e-06 -1.90497e-07 8.00844e-06
47 1 7.88387 11.2289 8.94669 9.94338e-06 -2.9757e-05 5.37653e-06 3.18317e-05
48 1 10.9083 1.61375 5.1884 -1.63472e-05 2.39095e-05 -3.4909e-05 4.536e-05
49 1 11.0058 0.297164 2.90809 3.10971e-06 -1.06779e-05 -2.98921e-06 1.15163e-05
50 1 10.4173 11.0669 9.22429 -7.40555e-06 3.22817e-06 -1.14802e-05 1.40377e-05
51 1 8.9401 8.89463 8.8132 -4.30994e-05 5.46586e-06 -1.30455e-05 4.5361e-05
52 1 9.37476 0.743808 7.02773 6.35187e-06 2.18612e-05 -1.89566e-05 2.96245e-05
53 1 9.4306 10.7393 4.75765 3.41166e-07 1.21385e-05 9.60469e-06 1.54826e-05
54 1 11.4233 10.1268 11.4452 -1.6169e-05 -1.88026e-05 -1.07207e-05 2.70168e-05
55 1 7.35498 8.08972 10.7195 -2.58743e-05 -2.75071e-05 3.64255e-05 5.24685e-05
56 1 7.48528 6.76459 8.44602 4.17558e-05 -3.55407e-06 9.14641e-06 4.28933e-05
57 1 8.73865 1.67635 3.88529 -6.31699e-06 5.52824e-06 -5.18104e-06 9.86453e-06
58 1 5.87526 5.61055 10.0009 1.69688e-05 5.39064e-05 0.000158879 0.00016863
59 1 6.0289 4.46748 7.91782 1.58619e-06 2.85396e-05 -7.10804e-05 7.66123e-05
60 1 4.90871 5.73921 6.1378 8.44414e-06 -1.40434e-06 -1.31849e-06 8.66106e-06
61 1 2.03888 2.74757 7.83478 -2.67361e-05 -3.34165e-05 -1.80799e-05 4.64582e-05
62 1 3.43773 3.60813 5.78348 1.76138e-05 -3.49916e-05 5.26274e-05 6.56072e-05
63 1 2.08466 0.117611 3.1751 -1.45934e-05 -7.97219e-06 -1.65185e-05 2.34389e-05
64 1 2.53278 3.26784 1.40183 5.59295e-06 -5.1743e-06 -2.37746e-05 2.49657e-05
65 1 2.67238 1.85999 10.7044 9.04589e-07 -2.92449e-05 -2.88406e-05 4.10836e-05
66 1 0.485745 0.604209 7.3512 2.41393e-05 3.73096e-06 -4.71852e-06 2.48775e-05
67 1 2.01447 1.44563 5.46828 -1.01999e-05 -1.20147e-05 2.84778e-05 3.2548e-05
68 1 3.65425 0.934407 1.26164 2.3519e-05 -3.73474e-05 -2.62547e-05 5.13545e-05
69 1 3.78835 10.8825 10.676 8.12245e-06 -1.39596e-05 -8.82724e-06 1.84056e-05
70 1 1.582 9.58732 7.22834 3.17106e-05 1.101e-06 -3.97972e-06 3.19783e-05
71 1 3.11971 10.3954 5.32412 -2.52135e-05 1.83201e-05 -2.0816e-05 3.74788e-05
72 1 1.63703 8.26934 4.9345 -3.1217e-05 -9.36844e-06 -1.94932e-06 3.26507e-05
73 1 4.38684 3.40308 9.6078 -3.25595e-05 2.63766e-05 5.66311e-05 7.04481e-05
74 1 4.76207 9.84621 1.14737 -2.094e-05 5.205e-06 -3.27156e-06 2.18238e-05
75 1 0.118777 7.40344 6.80216 4.08818e-05 1.50147e-05 -4.12423e-05 5.99807e-05
76 1 0.734174 7.84994 0.563954 7.70406e-06 -1.31734e-05 1.88332e-05 2.42401e-05
77 1 0.760351 6.49375 10.0377 1.86746e-05 -1.02991e-05 1.97009e-06 2.14171e-05
78 1 0.834308 5.12193 7.83095 -7.37596e-06 3.1898e-05 4.0729e-07 3.27422e-05
79 1 0.15342 6.07712 4.53492 -1.36207e-05 3.14367e-06 1.00557e-05 1.72199e-05
80 1 1.8484 5.55705 0.544147 9.68483e-06 -3.13418e-05 -6.10753e-06 3.33677e-05
81 1 1.94589 4.192 10.0109 -3.21194e-05 -2.28143e-05 5.57245e-05 6.82449e-05
82 1 0.882205 3.78923 5.60175 -3.86292e-05 -1.47738e-05 2.02798e-05 4.60625e-05
83 1 0.385121 1.95118 9.62739 -2.18644e-05 8.5091e-06 3.77429e-06 2.37634e-05
84 1 1.08376 1.0551 0.960977 2.15271e-05 -3.41303e-05 -2.10961e-05 4.55339e-05
85 1 1.52155 10.9883 9.56109 1.13105e-05 6.31335e-06 -8.81786e-06 1.56698e-05
86 1 0.548013 10.5959 5.06292 -4.1036e-06 3.24944e-06 -1.72732e-05 1.80489e-05
87 1 0.0484441 8.75664 9.11332 -1.24892e-06 -2.17348e-05 4.17275e-05 4.70654e-05
88 1 0.962576 2.46214 3.29382 -2.75283e-06 -1.35713e-05 -9.34967e-06 1.67085e-05
89 1 0.343673 3.33991 0.142176 -3.51669e-07 -5.78788e-06 -2.71148e-05 2.77279e-05
90 1 2.37502 4.64054 3.70022 -1.28553e-05 -2.41852e-05 -5.69464e-06 2.79752e-05
91 1 4.98913 4.38209 3.94373 -7.56478e-06 -9.30868e-07 -6.39552e-05 6.44077e-05
92 1 6.56356 5.45656 2.34237 -3.0996e-05 -2.89684e-05 6.61993e-05 7.86274e-05
93 1 6.98289 3.20708 9.8899 1.33017e-05 2.69575e-05 -7.22894e-06 3.09177e-05
94 1 4.60701 2.3414 7.54707 2.64917e-05 -4.17685e-06 -8.64875e-05 9.05502e-05
95 1 6.13025 3.24411 5.80081 1.89102e-05 -1.14331e-05 0.00011466 0.00011677
96 1 3.52741 2.27607 3.51291 1.11964e-06 -6.29807e-06 -1.75231e-05 1.86542e-05
97 1 5.16723 3.06512 1.7087 2.38295e-05 -4.80194e-05 2.51452e-06 5.36659e-05
98 1 5.29612 1.70856 11.1307 1.49723e-05 -3.66967e-06 -2.05209e-05 2.5666e-05
99 1 3.0662 0.386543 7.60791 -2.78555e-06 9.29085e-06 1.08402e-05 1.45461e-05
100 1 4.5759 1.1439 5.47295 1.06768e-05 4.47669e-05 7.9517e-05 9.1875e-05
101 1 4.62364 11.1921 3.33002 1.79646e-05 2.80964e-05 -3.16609e-05 4.59842e-05
102 1 6.24576 0.566659 1.47836 -1.80559e-05 -1.11535e-05 8.42274e-06 2.28332e-05
103 1 3.98574 5.66366 2.07493 -2.50298e-05 -6.2814e-05 5.51607e-05 8.72628e-05
104 1 6.34283 10.519 10.9209 5.63324e-06 1.93573e-05 6.53669e-06 2.11936e-05
105 1 5.36364 10.4331 6.70643 4.37624e-06 7.70594e-08 2.56363e-05 2.60072e-05
106 1 5.40858 9.16322 4.57647 2.32566e-05 -6.81957e-06 -1.76881e-05 3.0004e-05
107 1 7.30092 9.4296 1.41845 -9.00613e-06 -3.27305e-05 8.91501e-06 3.50981e-05
108 1 2.23961 8.70614 10.373 5.39373e-06 -1.39495e-05 -3.89153e-07 1.4961e-05
109 1 2.26876 7.3293 8.16735 -7.93425e-06 -1.37577e-05 -3.72885e-05 4.05298e-05
110 1 3.81401 8.18526 6.32523 -4.21943e-06 2.70781e-05 3.78665e-06 2.76653e-05
111 1 1.71081 6.93235 2.73329 -6.87623e-06 -1.94348e-05 1.6667e-05 2.651e-05
112 1 3.19533 9.08127 3.07121 2.18301e-05 3.62047e-05 2.2109e-05 4.77089e-05
113 1 3.30936 7.73965 0.865775 -1.85957e-05 1.50834e-05 -1.28401e-05 2.71695e-05
114 1 3.37292 6.38523 10.2655 1.84059e-05 -3.78212e-06 1.638e-05 2.49276e-05
115 1 3.40941 4.99177 8.0154 -3.60009e-06 -8.65155e-06 -2.53143e-05 2.6993e-05
116 1 2.29971 5.99403 5.93191 1.0862e-05 -1.38907e-05 2.92019e-05 3.41128e-05
117 1 3.7922 9.49521 8.50522 3.2941e-05 1.80579e-05 -6.69583e-07 3.75718e-05
118 1 10.6727 5.65774 0.212588 3.03367e-05 -1.19673e-06 -1.78791e-05 3.52336e-05
