ITEM: TIMESTEP
0
ITEM: NUMBER OF ATOMS
132
ITEM: BOX BOUNDS pp pp pp
0.0000000000000000e+00 1.1396901000000000e+01
0.0000000000000000e+00 1.2680864000000000e+01
0.0000000000000000e+00 1.2228524999999999e+01
ITEM: ATOMS id type x y z fx fy fz v_fmag
1 1 10.9111 1.20578 10.0305 -2.30407e-05 3.53621e-05 -4.3725e-05 6.0772e-05
2 1 5.22442 9.51042 4.98341 -3.32816e-05 5.55029e-06 -1.19573e-05 3.57973e-05
3 1 6.34987 10.6729 2.88521 1.97903e-06 -7.48424e-06 -1.91883e-05 2.06911e-05
4 1 5.16444 7.86467 11.2869 4.34996e-05 -4.3896e-05 3.63131e-05 7.16779e-05
5 1 5.67623 7.09519 8.91338 -1.14656e-05 -1.32859e-05 -8.54621e-06 1.95196e-05
6 1 6.7001 8.38465 6.78359 1.86575e-05 -2.07789e-05 2.02072e-05 3.44702e-05
7 1 3.73274 7.88917 3.42512 -1.05936e-05 -3.32883e-05 -3.75713e-05 5.13024e-05
8 1 4.81667 9.09862 1.3262 -6.72509e-06 -5.50212e-05 3.60347e-05 6.61139e-05
9 1 7.13964 5.90361 10.8149 1.88287e-05 2.91915e-05 1.53607e-05 3.79818e-05
10 1 4.10893 5.55211 7.33113 -1.72318e-05 -3.5162e-05 -1.37581e-05 4.1504e-05
11 1 5.20236 6.78424 5.21973 -7.43697e-07 -1.56527e-05 -2.21647e-06 1.58263e-05
12 1 5.17806 5.58566 2.92853 2.23532e-06 8.21271e-06 -2.69572e-06 8.92817e-06
13 1 6.38819 6.75317 0.886284 2.99026e-05 -4.93648e-06 2.39328e-05 3.86175e-05
14 1 5.56638 4.43245 9.15583 4.40378e-09 8.17024e-06 -3.85492e-05 3.94055e-05
15 1 5.49363 3.3505 6.78299 7.91472e-06 -3.41568e-05 -7.40234e-06 3.58347e-05
16 1 6.5985 4.49022 4.69591 1.40454e-05 -2.2935e-05 8.22684e-06 2.81241e-05
17 1 7.64349 3.0108 2.79885 -1.3619e-05 1.35259e-05 1.56482e-05 2.47648e-05
18 1 8.63378 4.57386 0.470051 3.76274e-07 -1.41777e-05 -1.20603e-05 1.86172e-05
19 1 4.69485 2.57607 11.7298 3.44052e-07 -1.33368e-05 5.59247e-06 1.44659e-05
20 1 6.94873 2.23559 8.55963 -2.72884e-05 3.32843e-05 6.11402e-06 4.34728e-05
21 1 7.99919 0.705942 6.68428 1.0883e-05 -6.53845e-06 -1.86239e-05 2.25398e-05
22 1 9.0751 1.9653 4.56922 1.64268e-05 -6.09729e-06 3.57307e-05 3.97957e-05
23 1 7.49102 0.374741 3.01601 1.96179e-05 1.03115e-05 5.79003e-06 2.29066e-05
24 1 8.44191 1.97315 0.567648 1.9876e-05 -4.73937e-07 2.6093e-05 3.28043e-05
25 1 6.11824 0.332598 11.196 1.07216e-06 5.12738e-07 -1.09685e-05 1.10327e-05
26 1 4.56973 11.4441 9.64144 3.73375e-05 7.11265e-06 1.07161e-05 3.94907e-05
27 1 3.78465 11.8133 5.49668 -1.60678e-05 -3.38304e-06 -1.62598e-06 1.65004e-05
28 1 4.94361 11.7862 1.08284 -6.50162e-08 -6.92419e-06 -3.31147e-05 3.38309e-05
29 1 5.95921 10.3267 11.4799 2.38657e-05 -7.78696e-06 4.49345e-05 5.14715e-05
30 1 3.81681 8.94716 9.49916 1.37582e-06 -3.49653e-05 1.94343e-05 4.0027e-05
31 1 7.78247 10.7286 7.06568 -3.92433e-05 2.96766e-05 -3.14854e-05 5.84129e-05
32 1 5.19607 10.7243 7.26503 4.21825e-05 -1.16236e-05 1.19073e-05 4.53459e-05
33 1 6.5034 9.59673 9.08553 4.30055e-05 -7.30613e-06 -2.56659e-06 4.36971e-05
34 1 6.43492 11.8588 5.1975 3.82892e-05 -1.38124e-05 -5.86928e-05 7.14261e-05
35 1 7.53618 11.8709 0.748946 -3.115e-05 4.03563e-05 -6.76437e-06 5.14267e-05
36 1 10.8967 11.1678 10.2706 3.44894e-06 2.53008e-05 -3.30919e-06 2.57483e-05
37 1 9.24546 9.59904 8.9051 7.98162e-06 2.72947e-05 -5.7292e-05 6.39615e-05
38 1 10.1785 10.8946 6.46883 0.000112754 -6.43684e-05 0.000133492 0.000186217
39 1 7.81698 9.61567 4.71255 8.33838e-06 -7.09085e-06 -3.09227e-05 3.28028e-05
40 1 8.93218 10.6415 2.46777 -2.50841e-05 4.09805e-05 -2.94163e-05 5.63377e-05
41 1 7.81527 8.4226 10.8602 2.88416e-05 1.40071e-05 -2.70911e-05 4.19758e-05
42 1 8.15228 7.25944 8.57007 -8.40344e-06 3.05705e-05 -1.05531e-05 3.34147e-05
43 1 9.27709 8.46671 6.51095 -2.78815e-05 -1.00609e-05 -1.1995e-05 3.19762e-05
44 1 6.2621 7.9966 3.15864 1.48545e-05 8.75669e-06 -7.75212e-06 1.89058e-05
45 1 7.356 9.17426 1.04749 2.07857e-06 -1.34602e-05 1.66159e-05 2.14845e-05
46 1 9.60017 6.20186 10.3586 1.21738e-06 2.218e-05 -2.79643e-05 3.57133e-05
47 1 6.67169 5.68008 7.01665 -4.37412e-05 2.84556e-05 1.32967e-05 5.385e-05
48 1 7.75312 6.88029 4.96011 8.30775e-07 -1.38722e-05 -2.83829e-05 3.16024e-05
49 1 7.75549 5.65601 2.63678 4.72103e-05 -1.66503e-05 -3.59284e-06 5.01892e-05
50 1 8.92631 7.12746 0.502761 1.69868e-05 -5.77637e-05 4.80368e-06 6.04009e-05
51 1 8.11549 4.58318 8.809 -3.69758e-05 2.24481e-05 -2.0746e-05 4.79741e-05
52 1 8.04235 3.40187 6.47414 -4.14537e-05 5.88217e-06 -1.3575e-05 4.40146e-05
53 1 9.16026 4.59617 4.40368 -2.06141e-05 8.2469e-06 -2.055e-07 2.22035e-05
54 1 10.1127 3.34755 2.35341 -3.06991e-05 6.43142e-06 3.46757e-05 4.67569e-05
55 1 11.0388 5.12654 12.1089 -1.44109e-05 1.70032e-05 -3.15772e-06 2.25112e-05
56 1 7.01537 3.24607 10.969 -2.23746e-05 -1.4581e-05 -1.49354e-05 3.05989e-05
57 1 9.4918 2.28001 8.22602 -1.80333e-06 -3.47363e-06 7.54487e-06 8.4996e-06
58 1 10.5503 0.830639 6.30647 -1.29852e-05 3.22265e-05 2.37732e-05 4.2099e-05
59 1 0.190094 2.17273 4.1981 2.39088e-05 -7.57952e-06 -1.47053e-05 2.90745e-05
60 1 9.90024 0.794571 2.37485 1.65739e-05 3.81854e-06 1.52383e-05 2.28359e-05
61 1 10.9403 2.39648 0.117513 -9.10291e-06 1.33405e-05 9.22761e-06 1.86006e-05
62 1 8.39403 1.1029 10.3544 -5.82048e-05 3.21773e-05 1.18996e-05 6.75631e-05
63 1 6.79408 12.3218 8.79285 -1.0331e-06 -1.49509e-05 3.66614e-06 1.54284e-05
64 1 8.18797 11.1902 10.5768 -7.51942e-06 -5.43016e-06 4.02325e-05 4.12878e-05
65 1 2.68851 9.31526 5.2273 7.42146e-06 -2.37428e-05 4.56e-05 5.19438e-05
66 1 3.75835 10.6054 3.17595 3.80283e-06 -2.27686e-05 1.71988e-05 2.87866e-05
67 1 2.54599 7.71832 11.5979 -4.30129e-05 4.48203e-05 -4.42711e-05 7.62817e-05
68 1 0.324506 4.81042 4.05807 -1.10521e-05 -7.86213e-06 2.07154e-05 2.47607e-05
69 1 1.20236 6.63649 1.32956 3.29368e-05 -5.99777e-05 -5.04584e-06 6.86121e-05
70 1 0.716316 3.59721 10.2901 -1.15167e-05 1.50364e-05 -7.80615e-06 2.04857e-05
71 1 0.637624 2.47502 7.95897 -2.03228e-05 3.4353e-06 1.64804e-05 2.63898e-05
72 1 1.7668 3.74579 5.84238 -4.0181e-06 3.15336e-05 9.8119e-06 3.32684e-05
73 1 2.48788 2.95587 3.46825 -3.60405e-05 -3.11028e-05 7.96929e-06 4.82681e-05
74 1 3.64775 4.04985 1.37547 -1.14971e-05 1.32144e-05 -7.86725e-06 1.92015e-05
75 1 2.08878 1.36186 9.71824 -1.36489e-05 3.24658e-05 1.48183e-05 3.82086e-05
76 1 3.13857 12.6602 7.828 4.555e-05 4.58797e-06 1.48197e-05 4.81194e-05
77 1 3.95285 1.84153 5.23219 2.3124e-05 6.15715e-06 -1.44122e-05 2.79345e-05
78 1 2.40829 0.327209 3.72574 1.14399e-05 2.26273e-05 -7.0868e-06 2.63265e-05
79 1 3.5722 1.41844 1.62482 7.96162e-06 -1.73118e-05 -2.84068e-06 1.92654e-05
80 1 0.990148 0.189239 11.7772 -2.47079e-06 8.79097e-06 -3.29806e-05 3.42214e-05
81 1 0.260945 9.98543 8.10143 -3.81996e-05 0.000138727 -0.000150568 0.000208267
82 1 1.05431 4.03721 1.66833 -9.75326e-06 2.66557e-06 -3.61161e-05 3.75047e-05
83 1 1.69161 1.14607 6.06128 -1.17919e-05 -1.04548e-05 2.7717e-05 3.18839e-05
84 1 1.01303 1.42058 1.88593 4.25611e-06 -3.30268e-05 -3.8663e-06 3.35236e-05
85 1 0.578779 12.5148 8.13268 -1.23348e-05 1.78236e-05 2.78876e-05 3.53206e-05
86 1 9.83873 12.5923 12.132 -9.53985e-06 2.37153e-05 3.23215e-06 2.57657e-05
87 1 10.3695 9.48534 4.30428 -3.77131e-05 -6.58354e-06 -1.63567e-05 4.16313e-05
88 1 10.7609 7.48429 8.37309 -2.33278e-05 3.45342e-05 -2.19337e-06 4.17326e-05
89 1 8.74416 8.03697 2.89389 1.34732e-05 1.94129e-05 2.79646e-06 2.37951e-05
90 1 9.57012 9.8168 12.2101 1.57663e-05 -2.97607e-06 -6.64444e-06 1.73661e-05
91 1 9.23401 5.79392 6.74567 -2.72117e-05 3.79636e-06 4.95882e-05 5.66911e-05
92 1 10.2863 6.93586 4.63867 5.40315e-07 3.25643e-05 1.49798e-06 3.26032e-05
93 1 10.3179 5.94128 2.25788 3.08452e-05 5.74745e-06 -4.20687e-06 3.16569e-05
94 1 10.6802 4.71424 8.52149 -2.31242e-05 -1.50981e-05 -7.36575e-07 2.76265e-05
95 1 10.6013 3.52607 6.16928 -1.33675e-06 -2.74746e-05 8.85261e-06 2.88965e-05
96 1 9.54921 3.48329 10.5625 -1.2575e-05 -9.23043e-06 -1.77317e-05 2.36167e-05
97 1 0.363406 5.91818 6.46655 8.43049e-06 1.08881e-05 1.29943e-05 1.89335e-05
98 1 2.24755 5.12886 11.7976 2.82573e-06 1.00197e-05 -5.04769e-06 1.15697e-05
99 1 10.9236 8.51804 1.87434 3.29422e-06 -7.72575e-06 1.42425e-05 1.65344e-05
100 1 1.94282 7.54107 7.97977 -2.13277e-05 3.38665e-05 -1.58618e-05 4.30512e-05
101 1 3.42046 6.30216 9.69024 -2.4428e-05 1.733e-06 2.89132e-05 3.78907e-05
102 1 4.20215 8.20577 7.05728 3.80919e-06 8.17864e-06 2.19468e-05 2.37289e-05
103 1 1.12235 7.65219 3.70476 6.57012e-06 -5.10685e-05 1.47709e-05 5.35662e-05
104 1 2.26065 8.98811 1.61988 2.65677e-06 -2.92257e-05 1.99279e-05 3.54728e-05
105 1 4.80785 5.21778 11.511 -2.65578e-05 -6.36327e-06 -2.1414e-05 3.4704e-05
106 1 1.84915 4.8117 8.18714 -1.01259e-05 -6.05615e-06 4.27339e-05 4.43328e-05
107 1 2.60345 6.66496 5.56376 -2.84456e-05 -3.11982e-05 -1.08987e-05 4.36034e-05
108 1 2.59367 5.55935 3.19981 5.0886e-05 3.34132e-05 -3.44067e-05 6.9926e-05
109 1 3.80997 6.68495 1.16719 6.17428e-05 -7.39504e-05 4.64828e-05 0.000106965
110 1 3.28179 3.67833 9.95261 5.75278e-06 2.03696e-05 -3.33544e-08 2.11664e-05
111 1 3.23221 2.62052 7.61768 -2.60714e-05 7.53143e-06 -1.3552e-05 3.03331e-05
112 1 4.03453 4.45775 4.99649 -7.199e-06 -1.21033e-05 -2.2645e-05 2.66666e-05
113 1 5.08145 2.9403 3.15342 1.61199e-05 -3.51846e-06 -1.30848e-06 1.65512e-05
114 1 6.2118 4.10337 1.05068 2.98818e-06 1.09209e-06 5.30668e-06 6.18731e-06
115 1 8.9717 12.0128 4.67681 -2.06049e-05 1.26213e-05 -1.71591e-05 2.96361e-05
116 1 2.14969 2.50604 12.0588 -1.31332e-05 4.64138e-06 3.24363e-06 1.43019e-05
117 1 5.39342 0.728573 6.99123 -3.32249e-05 -1.31002e-05 -2.22663e-05 4.20868e-05
118 1 6.53509 1.83729 4.9209 -1.34896e-05 5.96736e-06 -9.64211e-06 1.76224e-05
119 1 4.9664 0.268408 3.41762 1.87844e-05 3.99658e-07 -3.28827e-05 3.78719e-05
120 1 6.08525 1.4615 1.27667 4.41563e-06 -1.08343e-05 2.98311e-05 3.20433e-05
121 1 3.5423 0.232421 11.4966 1.54113e-06 -1.71959e-05 -1.93019e-05 2.58966e-05
122 1 2.04497 11.3886 9.86685 4.71487e-06 1.21843e-05 1.44008e-05 1.9444e-05
123 1 1.23211 11.3226 5.92799 3.75949e-05 -3.0345e-06 6.51889e-05 7.53139e-05
124 1 3.37938 10.2086 11.7306 -2.62608e-06 -8.15284e-06 1.90692e-05 2.09045e-05
125 1 1.22812 8.96179 10.0172 6.73289e-05 -8.7326e-05 0.000156842 0.000191725
126 1 2.69755 10.1778 7.64506 6.07224e-05 1.77155e-05 -1.74301e-06 6.32779e-05
127 1 0.465611 8.48371 6.11107 -1.44121e-05 1.72338e-05 -5.31842e-06 2.30867e-05
128 1 2.43602 11.8082 1.36275 -4.25619e-05 -1.48583e-05 -4.39619e-05 6.29678e-05
129 1 11.1616 7.77316 11.6987 3.67084e-05 -2.69262e-05 -2.43059e-05 5.16072e-05
130 1 0.849918 6.25542 10.0231 -2.2365e-05 2.69843e-05 -3.04957e-05 4.64578e-05
131 1 4.68256 1.45777 9.39628 5.21871e-06 2.35142e-05 -1.30762e-05 2.74069e-05
132 1 9.4262 12.2758 8.50056 -1.61047e-05 4.21557e-05 -2.82219e-05 5.32253e-05
