ITEM: TIMESTEP
0
ITEM: NUMBER OF ATOMS
132
ITEM: BOX BOUNDS pp pp pp
0.0000000000000000e+00 1.1400361000000000e+01
0.0000000000000000e+00 1.2098903999999999e+01
0.0000000000000000e+00 1.2816801000000000e+01
ITEM: ATOMS id type x y z fx fy fz v_fmag
1 1 0.544428 11.5142 4.27412 2.07982e-05 -6.55732e-06 -7.47851e-06 2.30541e-05
2 1 8.57233 6.27515 4.27449 1.79742e-05 9.96682e-06 -1.78088e-05 2.71949e-05
3 1 9.49165 7.71741 2.11404 7.41813e-06 3.34674e-05 1.15848e-05 3.61843e-05
4 1 7.97994 6.30262 0.319849 -1.83551e-05 2.65438e-05 1.3224e-05 3.48763e-05
5 1 8.94226 5.16218 10.9888 8.01396e-05 3.67422e-05 -1.51996e-05 8.94615e-05
6 1 7.87798 3.86242 9.0091 1.20338e-06 -2.76201e-05 9.75104e-06 2.93155e-05
7 1 9.69061 6.28477 8.7822 -1.94847e-05 2.37435e-06 1.04101e-05 2.22185e-05
8 1 7.99666 3.80702 4.56837 -3.54104e-06 3.33772e-05 -2.17679e-05 4.00052e-05
9 1 9.53159 5.14089 1.99148 1.32316e-05 1.70655e-05 4.80763e-06 2.21229e-05
10 1 7.99869 3.70491 0.233795 -7.48637e-07 -2.27766e-05 1.54343e-05 2.75236e-05
11 1 8.99809 2.6076 10.8946 6.21273e-06 -4.29042e-06 2.93113e-05 3.02681e-05
12 1 7.44659 1.31978 9.14678 -1.78808e-05 -1.40959e-05 3.31586e-06 2.30089e-05
13 1 8.81922 2.86292 6.79452 -6.9227e-06 1.29165e-05 -1.15275e-05 1.86452e-05
14 1 7.08758 1.45194 5.13582 2.51053e-05 -1.12853e-05 -2.66796e-06 2.76542e-05
15 1 8.91515 2.68691 2.39096 8.11627e-06 -7.83441e-06 2.58557e-06 1.15731e-05
16 1 7.21461 1.3377 0.81383 3.69085e-06 3.00186e-06 -6.57581e-06 8.11633e-06
17 1 8.03018 0.311925 2.97579 -1.36775e-06 6.19539e-06 -3.41515e-06 7.20534e-06
18 1 6.04451 12.0887 7.31574 2.04481e-05 -2.48444e-05 2.42822e-05 4.03112e-05
19 1 4.55515 10.6438 5.51674 -2.52365e-05 -6.57452e-06 1.09978e-05 2.83029e-05
20 1 6.43984 10.9966 1.1739 3.80938e-06 -1.09856e-06 1.23753e-05 1.29949e-05
21 1 6.675 10.0123 11.444 -4.67541e-05 2.7359e-05 -3.49505e-06 5.42833e-05
22 1 5.06467 8.56554 9.60556 -4.95647e-05 2.16228e-05 -6.37671e-06 5.44506e-05
23 1 6.09355 9.49954 7.17405 -1.48237e-05 -3.5943e-05 2.30078e-09 3.88798e-05
24 1 7.0233 8.35888 5.02864 3.93544e-05 2.40574e-05 -1.34768e-05 4.80537e-05
25 1 7.97134 9.82458 2.89208 1.64197e-05 1.81913e-05 1.38817e-05 2.81644e-05
26 1 5.53367 8.55428 0.859059 -2.67728e-05 1.46694e-05 -8.2688e-06 3.16283e-05
27 1 6.44576 7.47301 11.4492 2.88465e-05 1.12388e-05 -1.57174e-07 3.09589e-05
28 1 4.84067 6.02508 9.67252 -7.47455e-05 1.71413e-05 1.44633e-05 7.80378e-05
29 1 8.32974 7.31392 6.91697 -6.88224e-06 -1.96935e-05 1.47867e-05 2.55704e-05
30 1 6.07742 5.95617 4.69687 -1.29561e-05 8.15596e-06 -5.53047e-06 1.62777e-05
31 1 10.8897 7.51506 6.37108 9.6472e-06 2.58228e-06 1.40538e-05 1.72408e-05
32 1 7.03404 7.39842 2.54639 -7.81663e-07 3.61521e-05 9.91008e-06 3.74939e-05
33 1 7.27299 6.33914 9.26114 5.54048e-05 4.05513e-06 -4.85351e-05 7.37685e-05
34 1 8.00878 8.87107 0.396708 6.0924e-06 1.32628e-05 -1.58615e-06 1.46811e-05
35 1 0.0920107 11.5063 0.201192 6.39787e-06 -5.68025e-06 -1.11133e-05 1.40251e-05
36 1 9.97521 11.2539 8.59571 2.0176e-05 1.63587e-05 1.45707e-05 2.97823e-05
37 1 0.563713 8.94255 4.17606 6.47736e-06 1.40451e-05 -1.20544e-05 1.96094e-05
38 1 10.4906 9.14502 12.7609 -1.45344e-05 -7.95337e-06 1.73908e-05 2.40197e-05
39 1 9.24818 10.211 10.8586 -3.78722e-05 1.77366e-05 -3.2266e-05 5.28203e-05
40 1 10.085 8.74694 8.58482 -1.20279e-05 8.98692e-06 -1.35817e-05 2.0246e-05
41 1 11.0386 6.56157 3.81329 2.42576e-05 2.33451e-05 6.42327e-06 3.42737e-05
42 1 10.4471 6.58183 12.7198 2.90109e-05 -9.52087e-06 6.09966e-06 3.11366e-05
43 1 11.3843 5.38993 10.5738 -5.76762e-05 -2.47574e-05 9.23009e-06 6.34403e-05
44 1 10.7711 4.08067 8.3842 -2.45581e-05 1.40548e-05 2.96081e-05 4.09546e-05
45 1 0.743186 6.49496 8.31787 3.34135e-05 2.25327e-05 6.36436e-06 4.08006e-05
46 1 9.81622 5.17853 6.23322 -1.52401e-05 1.51989e-05 2.24896e-06 2.16408e-05
47 1 10.5172 3.97878 12.6289 9.79535e-06 2.38818e-05 7.24016e-06 2.68087e-05
48 1 0.160513 2.84635 10.4534 -1.80304e-05 -1.25994e-05 -1.5251e-05 2.67663e-05
49 1 9.98602 1.68061 8.66811 1.84455e-05 -3.66776e-05 1.55776e-05 4.39107e-05
50 1 0.0681709 3.05083 6.18054 -3.43712e-05 -7.67676e-06 -2.39864e-05 4.26105e-05
51 1 9.678 1.72014 4.62933 8.66535e-06 1.88704e-05 -5.13177e-07 2.07713e-05
52 1 10.6609 4.04542 3.98311 -9.58392e-06 1.48187e-05 -3.01761e-05 3.49577e-05
53 1 9.82923 1.5505 0.240853 -2.39008e-05 6.33157e-07 -1.97249e-06 2.39904e-05
54 1 10.9626 0.55876 6.47214 1.71492e-05 5.30737e-05 -2.01503e-05 5.93038e-05
55 1 10.6046 0.569848 2.45584 9.48217e-06 3.18205e-05 -1.42952e-05 3.61498e-05
56 1 8.49678 0.328818 6.8712 -2.6554e-05 1.68522e-05 -1.26959e-05 3.39161e-05
57 1 7.02168 10.9611 5.10821 1.24152e-05 1.47062e-05 2.47391e-06 1.94044e-05
58 1 8.96269 11.2573 0.742996 6.16096e-06 7.39329e-06 3.01693e-06 1.00856e-05
59 1 8.07455 0.282727 11.4552 -1.62975e-05 -7.34394e-06 -8.66629e-07 1.78968e-05
60 1 7.60363 8.86039 9.1396 -2.24503e-05 -3.5319e-05 -2.16597e-06 4.19063e-05
61 1 8.56575 9.84635 6.80372 3.94936e-05 9.40604e-07 1.8057e-05 4.3436e-05
62 1 9.49102 8.67462 4.61493 -2.78177e-05 -9.92416e-06 1.37266e-05 3.25689e-05
63 1 10.4424 10.0985 2.47758 2.78396e-05 8.84432e-06 2.84662e-06 2.93491e-05
64 1 8.93161 7.69883 10.9686 -2.67623e-05 -2.23462e-05 3.22547e-06 3.50139e-05
65 1 5.53675 5.95766 0.741073 -7.16173e-06 7.33481e-06 -1.69019e-05 1.97677e-05
66 1 6.50339 4.88079 11.3347 -4.51974e-05 -1.63727e-07 2.24338e-05 5.0459e-05
67 1 5.24575 3.50298 9.50178 7.43002e-06 2.41525e-06 6.0571e-06 9.8857e-06
68 1 1.85107 0.692339 10.294 2.08298e-05 -3.66747e-05 2.23883e-05 4.7751e-05
69 1 3.66886 2.26245 7.72645 5.88354e-06 -2.80604e-05 2.02509e-05 3.51013e-05
70 1 2.04466 0.849245 6.02957 -1.67008e-05 -2.07049e-05 -5.11976e-06 2.70892e-05
71 1 3.6168 2.14911 3.48271 7.11697e-06 1.07549e-05 1.89683e-05 2.29372e-05
72 1 1.84896 0.78711 1.90664 -1.96575e-05 5.98108e-06 9.24519e-06 2.25314e-05
73 1 3.57027 11.7874 7.6733 6.26523e-06 1.05631e-05 1.59773e-05 2.0152e-05
74 1 3.01267 11.7948 3.86097 6.6031e-06 -1.83396e-05 -9.04698e-06 2.14893e-05
75 1 0.396467 10.406 10.3348 -3.38059e-05 2.89736e-06 -1.69196e-05 3.79145e-05
76 1 1.09635 11.5108 8.1328 4.69277e-06 -2.08829e-05 1.43025e-05 2.57426e-05
77 1 11.0271 10.0814 6.40246 7.99761e-06 1.7145e-05 -9.80343e-06 2.13078e-05
78 1 1.49778 10.36 2.02211 1.10082e-05 2.08793e-05 2.72122e-05 3.60226e-05
79 1 1.59306 9.36914 12.2906 -1.71678e-05 5.0533e-06 9.62298e-06 2.03193e-05
80 1 0.03475 7.91322 10.5366 4.09506e-05 -2.50419e-05 1.31266e-05 4.9763e-05
81 1 1.16965 8.98466 8.14458 -1.29791e-05 -1.82426e-05 -2.82169e-05 3.602e-05
82 1 2.01382 7.78254 5.88792 -2.88529e-05 -1.9192e-05 -2.24544e-05 4.1292e-05
83 1 3.03506 9.21514 3.73997 6.70381e-06 -8.21488e-06 -2.8145e-05 3.0076e-05
84 1 0.560572 7.98291 1.6672 1.10266e-05 6.23888e-06 1.59853e-06 1.27697e-05
85 1 1.52675 6.80658 12.2884 -7.42111e-07 3.32528e-05 2.07008e-06 3.33254e-05
86 1 3.22068 6.71721 7.81398 1.75392e-05 -2.73935e-05 -2.85768e-07 3.25286e-05
87 1 1.00269 5.40633 5.67905 1.24468e-05 -2.51162e-05 2.08388e-05 3.49286e-05
88 1 2.09992 6.82359 3.3728 4.18743e-05 5.89553e-06 6.5753e-07 4.22924e-05
89 1 0.606546 5.40791 1.56537 -1.12035e-06 2.88205e-05 1.91237e-05 3.46063e-05
90 1 1.60939 4.22301 12.1996 1.38239e-05 -4.87467e-05 5.19201e-05 7.25468e-05
91 1 2.00303 4.343 7.82661 -3.06131e-06 -9.03387e-07 1.38579e-05 1.42207e-05
92 1 1.91464 4.26461 3.41516 2.64809e-05 4.60055e-06 2.27921e-05 3.52404e-05
93 1 0.190794 2.8958 1.82078 -6.2338e-06 3.42727e-06 9.41166e-06 1.17977e-05
94 1 1.07745 1.74398 12.5077 2.15764e-06 -1.28838e-05 2.08168e-05 2.45762e-05
95 1 1.12135 1.95595 8.19796 -2.65057e-05 -2.49968e-06 -1.30043e-05 2.96296e-05
96 1 0.93295 1.93922 4.04629 -2.03221e-06 1.81215e-05 1.68808e-05 2.48491e-05
97 1 3.73544 1.94929 11.9267 1.44378e-05 -5.20452e-05 -4.66745e-06 5.42119e-05
98 1 2.85766 3.09576 1.2557 2.07854e-05 1.22147e-05 -1.60425e-05 2.89585e-05
99 1 4.50888 4.51498 2.91849 1.57445e-05 -1.95133e-05 2.65914e-05 3.6548e-05
100 1 2.71841 3.28225 5.61572 -3.03351e-05 2.52013e-06 -1.83154e-05 3.5525e-05
101 1 7.21196 4.95281 6.78234 -3.93791e-06 -3.37792e-06 -6.17016e-06 8.06154e-06
102 1 5.35595 3.53315 5.11279 6.65519e-06 -1.62614e-05 -4.75634e-08 1.75706e-05
103 1 7.04673 4.81127 2.43925 2.1478e-05 -3.51688e-06 -3.79652e-06 2.20927e-05
104 1 5.45172 3.37968 0.730523 1.18814e-05 2.20242e-05 3.06761e-06 2.52119e-05
105 1 6.39984 2.29985 11.3743 1.59666e-05 1.71159e-05 2.40561e-06 2.35302e-05
106 1 4.64642 1.00404 9.66823 1.81828e-05 1.47738e-05 -2.27863e-05 3.26817e-05
107 1 6.23584 2.55806 7.30398 -8.44738e-06 -2.5242e-05 3.57381e-05 4.45616e-05
108 1 4.56366 1.13156 5.60235 1.04682e-05 -1.40949e-05 6.97423e-06 1.88915e-05
109 1 6.25232 2.41918 2.94816 -1.99901e-05 3.68691e-05 1.27527e-05 4.38357e-05
110 1 4.53082 1.0129 1.32948 -1.9728e-06 -3.27559e-06 1.18428e-05 1.24448e-05
111 1 5.50277 0.00510071 3.4299 5.70933e-06 -4.8973e-06 -1.95553e-05 2.09521e-05
112 1 2.64583 11.7181 12.5207 -3.42196e-05 1.00857e-05 3.35891e-05 4.89993e-05
113 1 2.93714 10.5537 9.82436 -1.51566e-05 -3.04825e-05 -2.24941e-05 4.0803e-05
114 1 2.08443 10.3585 5.95228 1.3088e-05 3.7922e-06 -1.57954e-05 2.08607e-05
115 1 9.48749 11.2491 4.70017 -9.37464e-08 2.06584e-05 -3.10762e-05 3.73163e-05
116 1 3.96154 10.634 1.65611 2.98757e-06 -1.19129e-05 -1.63613e-05 2.04581e-05
117 1 2.55658 8.09852 10.0661 -2.45822e-05 -1.31173e-05 -1.83137e-06 2.79231e-05
118 1 3.62286 9.19951 7.61406 -1.75259e-05 7.21677e-07 -4.2889e-06 1.80574e-05
119 1 4.52648 8.05479 5.4222 2.14683e-05 -2.52694e-05 5.63711e-06 3.36335e-05
120 1 5.5183 9.50843 3.33459 1.24029e-05 6.76012e-06 -3.83252e-05 4.08455e-05
121 1 3.03738 8.24866 1.23867 -1.49125e-05 -1.03621e-05 -9.96999e-06 2.0716e-05
122 1 3.99597 7.07946 11.8835 -1.75428e-05 -3.90474e-05 -1.03942e-05 4.4051e-05
123 1 2.42042 5.60004 10.1075 5.87767e-05 -3.62758e-05 -1.86172e-05 7.15349e-05
124 1 5.75269 7.01508 7.34985 -3.07625e-05 2.13343e-05 -1.90566e-05 4.20076e-05
125 1 3.55658 5.66838 5.16957 -3.10798e-05 -1.15518e-05 6.5737e-06 3.38025e-05
126 1 4.56317 7.09784 2.94286 -4.30314e-06 1.37442e-05 -2.73409e-05 3.09022e-05
127 1 3.07741 5.65338 1.15344 8.23834e-06 -6.65387e-06 -1.72135e-05 2.02102e-05
128 1 4.07182 4.49842 11.7537 4.02568e-05 -5.7052e-06 -3.58279e-05 5.41922e-05
129 1 2.70345 3.09396 9.97205 3.29318e-06 -1.56918e-05 7.98983e-06 1.79141e-05
130 1 4.61482 4.64917 7.30589 3.28784e-05 -4.84264e-06 1.98514e-05 3.87107e-05
131 1 4.10725 9.6148 11.9088 -2.12986e-05 -2.86987e-05 -2.22391e-05 4.2093e-05
132 1 10.6219 0.482059 10.8418 -2.67492e-05 -1.29185e-05 -8.77771e-06 3.09751e-05
