ITEM: TIMESTEP
0
ITEM: NUMBER OF ATOMS
144
ITEM: BOX BOUNDS pp pp pp
0.0000000000000000e+00 1.1400361000000000e+01
0.0000000000000000e+00 1.2098903999999999e+01
0.0000000000000000e+00 1.2816801000000000e+01
ITEM: ATOMS id type x y z fx fy fz v_fmag
1 1 9.7197 11.4389 11.7564 -3.4459e-05 3.82933e-05 -1.33374e-05 5.32136e-05
2 1 7.93416 3.23974 12.7368 -1.64273e-06 7.46054e-06 1.42482e-05 1.61669e-05
3 1 8.84777 4.86218 1.67397 -1.40666e-05 2.92405e-05 4.00704e-05 5.15608e-05
4 1 8.61269 5.1194 5.06719 -5.59281e-05 -1.77417e-05 -3.56585e-06 5.8783e-05
5 1 7.20504 3.88172 6.93016 -2.27407e-06 -1.37469e-05 2.60556e-05 2.95473e-05
6 1 5.65108 5.18081 8.32989 -1.08626e-05 -3.17334e-05 5.83308e-06 3.40445e-05
7 1 4.32771 3.89058 10.1757 -7.48863e-05 -6.20857e-06 5.72558e-05 9.44708e-05
8 1 7.02174 1.61764 10.9719 2.08131e-05 3.10374e-05 1.4337e-05 4.00257e-05
9 1 7.71129 5.82948 12.2884 2.46709e-05 -9.67178e-06 -4.60999e-05 5.31733e-05
10 1 7.31021 6.18671 3.03532 3.90895e-05 -3.65642e-05 -1.77376e-05 5.63875e-05
11 1 8.27124 7.82926 4.72519 5.11695e-05 2.7504e-05 4.49814e-06 5.82668e-05
12 1 6.99566 6.42352 6.43774 -5.01776e-05 -1.4968e-05 4.88509e-05 7.16118e-05
13 1 7.89067 8.06899 8.24137 -1.03169e-05 -8.8237e-06 1.44963e-05 1.98605e-05
14 1 4.10238 6.4776 9.74328 -3.79611e-05 -3.1275e-06 2.26383e-05 4.43094e-05
15 1 7.48226 8.44878 11.8355 3.33467e-05 8.33365e-06 -2.58724e-05 4.30213e-05
16 1 8.63157 7.48184 1.18093 -3.12902e-05 2.43444e-05 9.8932e-06 4.08607e-05
17 1 8.41102 10.1148 0.732161 -3.756e-06 9.58093e-06 -8.44554e-06 1.33127e-05
18 1 8.34152 2.91442 9.13256 -6.1345e-06 4.11915e-06 4.96353e-06 8.90146e-06
19 1 8.74258 2.55715 5.56887 7.55704e-05 -2.10458e-05 -3.29149e-05 8.50717e-05
20 1 5.94656 9.7919 0.386095 -1.85662e-05 -2.15875e-08 -7.80778e-06 2.01411e-05
21 1 4.64058 8.50309 2.18798 1.8354e-05 -5.45271e-06 -1.39203e-05 2.36723e-05
22 1 5.56127 10.1163 3.93936 -3.03433e-05 -1.58515e-05 -1.66085e-06 3.42745e-05
23 1 4.26127 8.7815 5.77092 -9.93253e-06 -5.35153e-05 3.08624e-05 6.25702e-05
24 1 5.17931 10.392 7.52865 2.54098e-05 -5.02257e-07 2.39944e-05 3.4952e-05
25 1 3.8745 9.05672 9.31096 -4.34882e-05 -1.12737e-05 5.23703e-06 4.52299e-05
26 1 9.88179 1.59873 7.74895 3.99864e-05 -2.40032e-06 -1.65847e-06 4.00927e-05
27 1 4.7863 10.7665 11.0628 -3.06589e-05 -2.20575e-06 -5.12157e-06 3.11619e-05
28 1 6.4815 11.7046 5.70653 -2.82814e-05 5.80148e-05 1.6535e-05 6.66256e-05
29 1 6.10653 12.0563 9.2503 1.13484e-05 1.48529e-05 -3.32171e-06 1.8985e-05
30 1 7.78158 0.914638 3.87894 1.4703e-05 6.6878e-06 -1.38231e-05 2.12599e-05
31 1 11.0331 0.627084 9.92176 -2.70457e-05 5.18085e-05 2.26905e-05 6.26933e-05
32 1 8.1622 0.674893 0.36274 -3.20232e-05 -2.16236e-06 1.37351e-05 3.49115e-05
33 1 6.57236 2.00312 1.78944 -2.73495e-05 -1.34838e-05 1.61092e-05 3.44864e-05
34 1 6.86393 11.424 2.12332 -1.48074e-05 8.62324e-06 5.55531e-05 5.81358e-05
35 1 5.01971 8.11679 11.4992 -4.63741e-05 7.94066e-06 -2.07405e-05 5.14177e-05
36 1 7.10915 8.81576 2.54631 -9.8951e-06 -2.17007e-05 -3.51111e-06 2.41073e-05
37 1 6.7253 9.10792 6.12474 -2.25078e-05 4.94831e-06 -2.63653e-05 3.50173e-05
38 1 6.79313 4.21311 10.532 6.79806e-05 -1.84642e-05 -2.27781e-06 7.04803e-05
39 1 10.1768 6.15327 12.6412 3.99085e-05 -6.4124e-06 3.51287e-06 4.05727e-05
40 1 11.1015 7.83867 1.499 3.31542e-05 1.16393e-05 -1.67785e-05 3.89383e-05
41 1 9.78819 6.56299 3.31791 -2.59654e-05 3.07845e-05 3.18297e-05 5.13324e-05
42 1 10.7308 8.12984 5.07652 -1.04018e-05 3.58149e-05 3.49701e-05 5.11254e-05
43 1 9.4805 6.74077 6.81468 -1.45101e-05 1.06073e-05 1.173e-05 2.14627e-05
44 1 8.11866 5.50415 8.68409 -5.61435e-06 1.40027e-05 2.17572e-05 2.64758e-05
45 1 10.3642 8.38857 8.60205 -6.5309e-06 3.15414e-05 8.64114e-06 3.33494e-05
46 1 9.03109 7.12625 10.4491 -2.13228e-05 3.08538e-05 -2.95287e-05 4.77343e-05
47 1 10.8735 10.4508 1.07547 8.6065e-06 1.44494e-06 1.79916e-05 1.99964e-05
48 1 9.57132 9.13822 2.89762 -2.61863e-05 -1.13083e-05 1.47161e-05 3.20961e-05
49 1 10.4916 10.7266 4.66476 -2.9622e-05 -8.8513e-06 -7.61332e-06 3.18397e-05
50 1 9.18891 9.41884 6.48079 1.62359e-05 -3.06204e-06 1.46899e-06 1.65873e-05
51 1 10.1063 11.0509 8.21807 -1.09299e-05 3.45659e-05 1.38099e-05 3.87941e-05
52 1 6.56483 6.80501 10.0939 -1.84616e-05 -3.15209e-05 -1.53794e-05 3.96349e-05
53 1 8.02641 10.4214 4.30207 7.61123e-05 -2.30011e-05 -3.47918e-05 8.67906e-05
54 1 9.67895 4.19875 7.29679 4.74168e-05 -8.70286e-06 -5.38071e-05 7.22447e-05
55 1 11.3186 5.20974 2.01405 4.4192e-05 -1.01252e-05 1.30992e-05 4.71915e-05
56 1 7.64183 10.728 7.872 -6.28777e-05 6.02212e-05 7.52041e-06 8.73885e-05
57 1 6.33316 9.40384 9.66457 5.12855e-06 1.43305e-05 -6.99601e-06 1.67514e-05
58 1 7.25323 11.1019 11.4096 3.59036e-06 2.15228e-05 -9.066e-06 2.36287e-05
59 1 9.32754 11.7349 2.47939 -1.20942e-05 -2.64212e-05 -1.42807e-05 3.23773e-05
60 1 8.94367 12.027 6.05785 8.56292e-05 -1.03503e-05 -4.41752e-05 9.69068e-05
61 1 8.57058 0.295074 9.58546 -1.8802e-05 2.27616e-06 2.65043e-05 3.25757e-05
62 1 11.0737 5.36963 5.30291 1.93859e-05 -2.94501e-05 -2.30056e-06 3.53329e-05
63 1 0.0734332 2.71986 2.61339 -8.87923e-06 3.63611e-05 -6.80628e-06 3.80434e-05
64 1 10.6284 1.01569 0.734892 4.72532e-06 1.042e-05 5.17877e-06 1.25589e-05
65 1 9.0572 2.32038 2.16637 1.16049e-05 -1.69733e-05 -1.54388e-05 2.57123e-05
66 1 11.2006 2.87739 5.8996 -2.17783e-05 -6.61696e-06 1.09604e-05 2.52628e-05
67 1 10.8081 3.23348 9.48561 3.554e-05 2.64512e-05 -3.32664e-05 5.54023e-05
68 1 9.48801 1.93888 11.327 9.46658e-06 5.13337e-05 3.30728e-06 5.23039e-05
69 1 10.4017 3.56312 0.274212 3.53216e-05 2.20692e-05 6.81457e-07 4.16549e-05
70 1 10.2483 1.18972 4.25162 -3.45169e-05 3.45447e-05 -3.00865e-06 4.89265e-05
71 1 1.64803 6.14715 9.39285 -2.17402e-05 -2.8171e-05 -3.18768e-05 4.77742e-05
72 1 5.42447 7.72825 7.8692 -9.05429e-07 -4.42807e-05 2.98421e-05 5.34055e-05
73 1 4.57905 6.0241 5.99072 6.01051e-06 -5.42136e-05 2.04286e-05 5.82458e-05
74 1 0.0118779 0.24083 6.41619 -2.64979e-05 3.61448e-05 -9.93978e-06 4.59062e-05
75 1 2.85753 0.286818 3.18296 -5.97439e-05 -1.38177e-05 6.35478e-05 8.83096e-05
76 1 4.95129 0.905251 7.10516 2.04245e-05 -2.41812e-05 4.19158e-06 3.1929e-05
77 1 3.228 0.0338292 12.4703 -4.76023e-06 1.13492e-05 1.44867e-06 1.2392e-05
78 1 1.66395 1.37657 1.12137 -3.5333e-05 -3.69917e-05 5.00999e-05 7.16017e-05
79 1 4.97917 3.37424 3.30123 -1.88653e-05 4.21731e-05 -2.96845e-06 4.62956e-05
80 1 1.55565 11.0466 5.01648 2.09425e-05 -3.587e-05 -7.18619e-06 4.21532e-05
81 1 3.79052 1.82976 4.9565 -5.52459e-06 -7.08504e-06 8.59829e-06 1.24358e-05
82 1 2.09357 0.962031 10.2634 3.48924e-05 1.11252e-05 3.48147e-05 5.05303e-05
83 1 3.00445 2.59682 12.028 3.48879e-05 -9.22723e-06 1.84986e-05 4.05525e-05
84 1 3.91566 4.21771 0.978867 4.64901e-05 -1.92403e-05 -1.71832e-05 5.31675e-05
85 1 2.38702 5.53831 2.36568 -8.23435e-06 1.24183e-05 -1.39122e-05 2.03855e-05
86 1 2.26541 3.20562 6.23848 5.05745e-05 -2.81651e-05 -3.6849e-06 5.80055e-05
87 1 0.736787 4.52622 7.62529 -2.8149e-05 6.44044e-06 -4.55713e-05 5.39498e-05
88 1 3.40846 2.2624 8.42827 -3.07756e-05 -2.30397e-05 -1.08094e-05 3.9935e-05
89 1 0.550114 2.26635 11.6776 -3.21782e-05 1.07045e-05 4.92431e-05 5.97905e-05
90 1 1.93523 10.7871 1.4221 -3.75691e-05 1.2848e-06 3.17971e-05 4.92356e-05
91 1 1.01315 9.13014 12.5102 -1.99464e-06 1.79594e-05 -2.36818e-05 2.97884e-05
92 1 9.25968 4.53081 10.8889 4.32928e-06 1.68319e-06 -4.11556e-05 4.14169e-05
93 1 0.53796 7.03868 7.13598 1.4249e-06 2.59606e-05 -3.10994e-05 4.05358e-05
94 1 10.5891 5.8213 9.04695 1.43778e-05 4.91866e-06 -7.19069e-05 7.3495e-05
95 1 0.252563 9.73013 6.83371 -1.0789e-05 -1.20878e-05 5.11726e-05 5.36764e-05
96 1 11.2666 10.0762 10.3581 -5.50573e-05 8.67245e-06 9.70749e-06 5.65752e-05
97 1 0.391192 12.0614 2.83316 7.21686e-05 -5.6462e-05 -1.56951e-05 9.29656e-05
98 1 0.632816 9.4693 3.24157 5.06057e-05 -4.15533e-05 -1.12641e-05 6.64417e-05
99 1 2.48149 0.567377 6.7656 4.56895e-05 -3.49034e-05 -3.89699e-05 6.94581e-05
100 1 2.52427 3.04903 2.972 -3.99234e-06 -1.01505e-05 -4.6998e-06 1.18768e-05
101 1 1.31969 1.49981 4.61046 5.70061e-05 -1.53545e-06 -5.50304e-05 7.9249e-05
102 1 0.943532 1.93189 8.08343 2.79743e-05 -1.32684e-05 -8.19488e-06 3.20276e-05
103 1 1.45855 3.88935 0.635797 3.19292e-06 1.08684e-05 2.55874e-05 2.79827e-05
104 1 0.861913 6.91418 3.64764 6.0132e-05 -1.77457e-05 -3.21874e-06 6.27784e-05
105 1 0.0974695 7.45082 10.8066 1.07504e-05 8.96335e-06 -6.11926e-06 1.52761e-05
106 1 0.777996 11.7861 12.11 -1.41564e-05 1.6842e-05 -1.69093e-05 2.77485e-05
107 1 2.78448 5.17977 11.5942 4.87213e-06 -2.38885e-05 -4.07754e-05 4.75082e-05
108 1 2.55891 7.7819 11.1575 -1.12548e-05 1.20282e-05 -2.05584e-05 2.63438e-05
109 1 1.244 6.48157 0.175858 -3.84778e-05 -1.79777e-05 4.20404e-06 4.26781e-05
110 1 7.44017 3.62446 3.53697 3.32263e-05 2.50151e-06 -6.4775e-06 3.39441e-05
111 1 6.26462 2.18088 5.28625 2.70787e-05 2.54684e-05 -9.83815e-06 3.84537e-05
112 1 5.876 2.59065 8.77969 1.01255e-05 -1.1815e-05 -1.31593e-05 2.03786e-05
113 1 4.55501 1.2931 10.6143 -9.2956e-06 5.74531e-06 7.85307e-06 1.34569e-05
114 1 5.46374 2.92262 12.374 -2.65725e-05 -2.31931e-05 4.61853e-05 5.81129e-05
115 1 6.37386 4.54513 1.30738 -5.07135e-06 4.17962e-05 1.95272e-05 4.64106e-05
116 1 4.11454 1.70525 1.46812 2.38782e-06 -2.44767e-05 2.26685e-05 3.34465e-05
117 1 4.85217 5.86648 2.7046 1.98786e-05 9.64009e-06 -2.27055e-05 3.16801e-05
118 1 3.19392 4.85463 7.9683 -1.67468e-05 -6.00385e-05 3.40831e-06 6.24235e-05
119 1 1.868 3.56421 9.82673 -8.22631e-06 -2.81126e-05 -1.92562e-05 3.50542e-05
120 1 5.24466 5.51044 11.9354 -4.89546e-05 -1.83894e-05 1.3049e-05 5.3898e-05
121 1 6.17101 7.14514 0.855255 2.06429e-05 4.03972e-05 -1.59691e-05 4.80945e-05
122 1 3.70891 6.81203 0.52076 6.42603e-05 -1.87715e-05 -6.97676e-05 9.66916e-05
123 1 5.80455 7.55422 4.35252 -1.21586e-05 1.72194e-05 4.30474e-05 4.79314e-05
124 1 4.73418 3.53421 6.59004 -2.48321e-06 -3.06409e-05 1.85029e-05 3.58802e-05
125 1 5.6887 0.35533 0.00206198 -1.60758e-05 -8.7537e-06 1.91156e-05 2.64663e-05
126 1 7.42124 1.26203 7.42325 -2.84946e-05 2.36769e-05 3.18928e-05 4.88844e-05
127 1 5.32199 0.614094 3.5276 7.39088e-05 -3.45417e-05 -3.09093e-05 8.72412e-05
128 1 3.33276 7.24414 3.99368 -3.55462e-05 -2.08522e-05 -3.71461e-06 4.13781e-05
129 1 2.12821 5.6949 5.63212 -1.48111e-05 2.80861e-05 -3.35427e-05 4.61878e-05
130 1 2.98853 7.36743 7.4827 6.31017e-06 -5.90273e-05 2.52248e-05 6.45006e-05
131 1 0.324767 4.85337 11.2452 -1.36401e-05 4.53392e-05 -2.37299e-05 5.29604e-05
132 1 2.32625 10.4214 10.7105 4.12745e-06 -1.19308e-05 -6.10698e-05 6.2361e-05
133 1 3.47962 9.46669 0.0391574 2.71764e-05 1.06237e-05 -2.13309e-05 3.61446e-05
134 1 2.17096 8.17657 1.83857 -3.78799e-05 2.94156e-06 2.37578e-05 4.48104e-05
135 1 3.09682 9.79625 3.58762 -2.64076e-05 -1.02926e-05 3.47355e-05 4.48314e-05
136 1 1.79492 8.45717 5.42111 4.64685e-05 1.27639e-06 -1.60672e-06 4.65138e-05
137 1 2.71724 10.0557 7.18199 -2.4719e-06 -2.18251e-05 9.56067e-06 2.39552e-05
138 1 1.42449 8.71012 8.9506 1.49862e-05 -8.44445e-06 -1.20863e-06 1.7244e-05
139 1 1.17287 11.3761 8.56501 -3.22647e-05 6.45904e-05 -1.23026e-05 7.32412e-05
140 1 4.39991 11.1127 1.77039 4.49436e-05 2.23513e-05 -1.5321e-05 5.24809e-05
141 1 4.01963 11.3736 5.36254 -7.1717e-06 -8.73175e-06 2.69951e-05 2.92646e-05
142 1 3.63934 11.7127 8.91078 -3.53345e-05 1.49288e-05 1.09881e-05 3.99016e-05
143 1 8.79963 9.74085 10.0113 3.41236e-07 2.30393e-05 1.24773e-05 2.62032e-05
144 1 9.94631 8.78649 12.1707 -3.19411e-05 2.4421e-05 -1.19676e-05 4.19505e-05
