ITEM: TIMESTEP
0
ITEM: NUMBER OF ATOMS
143
ITEM: BOX BOUNDS pp pp pp
0.0000000000000000e+00 1.1464695000000001e+01
0.0000000000000000e+00 1.1317634999999999e+01
0.0000000000000000e+00 1.1648808000000001e+01
ITEM: ATOMS id type x y z fx fy fz v_fmag
1 1 1.91267 6.23841 5.37855 -3.48049e-05 6.66457e-05 2.37796e-05 7.88575e-05
2 1 3.66813 7.01522 0.46994 5.0976e-05 1.64152e-05 6.91589e-05 8.74698e-05
3 1 8.65867 7.73559 1.09443 1.28031e-06 -4.21562e-07 -4.91938e-06 5.1007e-06
4 1 8.25848 8.00013 4.34228 -1.09653e-05 -7.84127e-05 -5.51929e-05 9.65145e-05
5 1 9.10295 9.54945 5.82462 2.62635e-05 0.000157558 9.71747e-05 0.000186968
6 1 7.64176 8.36587 7.35052 1.13348e-05 -9.06913e-06 5.46605e-05 5.65553e-05
7 1 8.63662 9.83216 8.87885 1.63136e-05 -2.97088e-05 -6.87279e-06 3.4583e-05
8 1 5.26851 5.99467 10.8226 -5.96955e-05 -1.66064e-05 -2.67416e-06 6.202e-05
9 1 4.92879 8.60669 10.7428 -1.54868e-05 4.07937e-05 -3.0349e-05 5.3151e-05
10 1 7.95459 10.4769 3.77554 2.55222e-05 2.86256e-05 -2.36323e-05 4.50477e-05
11 1 7.44131 10.8113 6.94851 7.89152e-05 -4.6148e-05 2.51405e-05 9.48118e-05
12 1 4.85211 10.9594 10.2697 -1.51502e-05 5.77208e-05 -2.85572e-05 6.61569e-05
13 1 9.47697 0.393964 2.3733 -3.48843e-05 2.07358e-05 1.85806e-05 4.46332e-05
14 1 8.8157 0.70083 5.27131 4.60325e-05 -3.22211e-05 5.14315e-05 7.61734e-05
15 1 9.73771 2.20732 6.86222 1.35948e-05 5.12852e-05 8.84127e-06 5.3788e-05
16 1 8.39649 10.2344 0.865389 -3.00517e-05 -2.99332e-05 2.08495e-05 4.72631e-05
17 1 8.40534 0.977639 8.58777 -9.06806e-06 -3.48724e-05 5.85585e-06 3.65048e-05
18 1 6.45567 7.24633 9.17085 -3.24957e-05 4.67111e-06 4.92001e-05 5.91476e-05
19 1 9.41225 7.22353 6.3757 -1.70445e-05 -2.82981e-05 5.62137e-05 6.52018e-05
20 1 7.26911 1.91003 6.59271 9.94591e-06 7.87055e-06 5.26967e-05 5.42016e-05
21 1 6.00487 0.730042 8.39089 -1.82814e-05 4.97907e-05 2.44958e-05 5.84241e-05
22 1 7.00776 2.2071 10.0157 -4.33591e-05 -2.39456e-05 1.19047e-05 5.09424e-05
23 1 5.8422 1.05252 0.219388 -1.76941e-06 -4.5702e-05 2.99997e-05 5.46972e-05
24 1 6.72092 2.70494 1.50886 3.58687e-05 -1.73443e-05 4.94317e-05 6.34893e-05
25 1 7.58117 4.12372 3.09985 1.8769e-06 -7.24773e-05 -2.38393e-05 7.63203e-05
26 1 5.53631 5.62201 7.58905 -3.9365e-05 3.72317e-06 2.53516e-05 4.69699e-05
27 1 6.12835 2.77073 4.5286 -7.01819e-06 1.86339e-05 -4.82815e-05 5.22262e-05
28 1 5.80488 3.14541 8.00466 -2.04318e-05 -3.84596e-05 1.57723e-05 4.63181e-05
29 1 6.76317 4.71732 9.53563 3.48047e-05 -1.46989e-05 4.07999e-05 5.56063e-05
30 1 5.57922 3.53846 11.2613 2.04375e-05 -0.000117715 -0.000104495 0.000158725
31 1 6.434 5.07243 1.13909 -9.08352e-06 6.15169e-06 4.24605e-05 4.38548e-05
32 1 7.33305 6.49686 2.77775 7.41979e-07 5.32777e-06 3.7998e-05 3.83769e-05
33 1 5.87256 5.21531 4.26132 1.62912e-05 -2.08363e-05 2.38378e-05 3.56061e-05
34 1 7.05168 4.32127 6.22085 -1.90341e-05 -2.8878e-05 2.08795e-05 4.04004e-05
35 1 6.3113 0.395379 4.94767 2.2012e-05 -1.76852e-05 -2.24219e-05 3.6056e-05
36 1 9.39204 2.4538 10.2227 4.30254e-05 1.1135e-05 -1.86683e-05 4.82045e-05
37 1 9.19652 2.85495 1.91063 1.48078e-05 1.35698e-05 -6.10081e-07 2.00943e-05
38 1 9.89464 11.1333 7.22508 2.3523e-05 -9.7657e-05 -0.000145247 0.000176598
39 1 7.24414 11.1078 10.3928 -2.125e-05 -4.10866e-05 2.04957e-05 5.05939e-05
40 1 10.3942 1.93228 3.90814 -5.79725e-05 -2.70468e-05 -2.60777e-07 6.39719e-05
41 1 10.8163 1.24023 8.79155 7.83396e-05 6.2376e-05 5.93542e-05 0.000116408
42 1 10.6259 1.52897 0.517959 3.318e-05 -5.25095e-05 8.28813e-07 6.21196e-05
43 1 0.170816 3.07701 2.07793 8.92607e-06 1.86813e-05 2.57294e-05 3.30253e-05
44 1 9.63553 9.22744 2.73962 -5.87104e-06 -1.95996e-05 -3.43825e-05 4.00096e-05
45 1 11.2921 3.4498 5.51058 -2.92169e-05 -5.34735e-06 2.85393e-05 4.11912e-05
46 1 10.4213 4.01179 0.118361 7.92109e-06 4.40321e-05 -3.51134e-05 5.68729e-05
47 1 10.1267 6.50492 11.3416 3.02868e-06 -1.28414e-05 9.38698e-06 1.61923e-05
48 1 11.0001 5.93426 5.14075 -4.67071e-05 3.37434e-05 1.21049e-05 5.88786e-05
49 1 10.4524 6.09231 8.14056 4.45483e-06 8.35355e-05 -1.32635e-05 8.46992e-05
50 1 11.3035 7.69078 9.56688 5.21064e-05 1.5846e-05 3.43541e-05 6.43924e-05
51 1 9.78741 8.94685 10.9769 -2.74594e-05 -7.92615e-06 2.54971e-05 3.83007e-05
52 1 10.681 3.68346 8.47979 -2.38946e-05 -3.77935e-05 1.74179e-05 4.79862e-05
53 1 8.21099 1.26398 0.421815 1.98429e-05 -4.44826e-05 6.23211e-06 4.91047e-05
54 1 10.8074 10.4373 0.922212 3.52375e-05 4.47877e-05 3.51087e-05 6.69346e-05
55 1 0.226195 9.89392 6.4563 3.7415e-06 5.77726e-06 2.27488e-05 2.37673e-05
56 1 10.1163 4.38003 3.48857 -6.94384e-05 -2.51869e-05 1.32087e-05 7.50369e-05
57 1 8.61696 3.08658 4.91425 1.78748e-05 -7.17339e-06 4.05776e-05 4.49166e-05
58 1 9.53925 4.61706 6.55914 -5.85437e-06 -2.29094e-05 4.02744e-05 4.67027e-05
59 1 8.2286 3.41015 8.23046 -6.43346e-05 1.9757e-05 4.00775e-05 7.83293e-05
60 1 9.18685 4.95565 9.79271 -3.41181e-05 2.40468e-05 -2.23161e-05 4.73318e-05
61 1 8.00266 3.80596 11.5174 9.38944e-06 -1.31299e-05 -9.49631e-05 9.63252e-05
62 1 7.40546 8.73397 10.8 -4.30121e-05 -2.96757e-05 1.47279e-05 5.42918e-05
63 1 8.921 5.30731 1.45469 1.46127e-05 5.09082e-06 1.85217e-05 2.4135e-05
64 1 8.49517 5.62136 4.72227 1.51985e-05 -1.52085e-06 3.66151e-05 3.96733e-05
65 1 7.95541 5.89137 7.8021 2.02171e-05 1.32568e-06 6.01268e-06 2.11339e-05
66 1 8.91601 7.4858 9.284 1.47561e-05 5.87141e-06 -7.65626e-06 1.76305e-05
67 1 7.71868 6.28132 11.0836 1.32124e-05 3.44358e-06 -1.97871e-05 2.40407e-05
68 1 6.18326 7.45039 0.814437 4.3466e-05 6.66137e-06 5.16956e-05 6.78683e-05
69 1 10.794 8.34127 4.70953 1.92367e-05 9.20722e-07 -2.71267e-05 3.32679e-05
70 1 9.86103 6.79261 3.07099 -4.64704e-05 1.77552e-05 6.47467e-06 5.01664e-05
71 1 10.9519 9.98762 8.99831 6.44623e-05 -3.45419e-05 7.01106e-05 0.000101312
72 1 7.63885 1.48065 3.23954 3.9763e-06 4.71932e-05 3.38012e-05 5.81853e-05
73 1 5.0419 10.5237 6.75355 2.96447e-05 -1.7192e-05 -5.69848e-05 6.64954e-05
74 1 0.999172 2.49397 7.56065 -3.41475e-05 9.96316e-06 1.84823e-07 3.55718e-05
75 1 0.179335 5.22355 10.0525 4.24808e-05 2.97515e-05 1.95934e-05 5.54407e-05
76 1 0.313813 2.70893 10.3677 1.47511e-05 -8.31914e-05 -8.39881e-06 8.49055e-05
77 1 11.3702 5.50505 1.67511 1.18261e-05 8.51753e-06 8.82612e-06 1.70383e-05
78 1 2.26819 5.77502 1.94954 1.55844e-05 1.20406e-05 -3.47626e-05 3.99536e-05
79 1 1.04529 4.63303 3.74467 -1.88693e-05 1.02323e-05 1.04397e-05 2.38692e-05
80 1 2.24442 3.71778 5.75629 -1.07847e-05 -6.82251e-05 -2.83009e-05 7.46453e-05
81 1 4.33 6.51042 5.5644 -3.26484e-05 -5.35924e-05 -5.90231e-05 8.61498e-05
82 1 1.64661 6.58817 8.65414 -2.39453e-05 9.6754e-06 -1.07795e-05 2.79855e-05
83 1 1.07742 6.74604 11.6148 -6.1622e-05 6.55938e-06 3.38898e-05 7.06315e-05
84 1 11.0788 8.00574 1.30916 2.97344e-05 -8.1063e-06 1.27941e-05 3.33697e-05
85 1 4.47715 8.68795 1.80173 -4.21567e-05 -3.77261e-05 -2.18196e-05 6.06345e-05
86 1 3.16528 7.42065 3.51924 1.16979e-06 1.95728e-05 -3.66355e-05 4.15527e-05
87 1 4.1031 9.00706 5.10486 -1.60071e-05 -3.22851e-05 -3.86032e-05 5.28087e-05
88 1 0.743461 4.97817 7.113 -2.91052e-05 4.94783e-05 -4.20405e-06 5.75577e-05
89 1 2.85903 7.81094 6.94314 -1.65006e-05 -2.70769e-05 -6.66108e-06 3.24006e-05
90 1 1.34344 2.17717 4.12593 2.40128e-05 6.85856e-05 4.91824e-06 7.28339e-05
91 1 1.49185 4.13716 0.216518 -5.77259e-06 4.09286e-05 -1.25343e-05 4.31924e-05
92 1 0.576957 9.53136 2.9138 2.62752e-05 1.30739e-05 5.76685e-07 2.93538e-05
93 1 0.798667 7.09081 3.29202 -6.17377e-05 5.0691e-05 -4.04752e-05 8.95509e-05
94 1 1.69307 8.66478 4.95804 -1.42543e-05 1.86861e-05 -2.04729e-05 3.11688e-05
95 1 0.354181 7.57154 6.85889 -4.39835e-05 1.49641e-05 -2.90223e-06 4.655e-05
96 1 1.52897 9.07873 8.47451 -3.65753e-06 1.38647e-05 -3.60399e-05 3.87877e-05
97 1 0.403651 0.644716 2.52064 -3.25665e-05 1.75647e-06 1.46703e-05 3.57614e-05
98 1 2.54328 3.32583 2.31128 -2.14736e-06 5.00123e-05 -4.38037e-05 6.65177e-05
99 1 10.589 10.7758 4.35479 -4.0339e-06 3.63643e-05 2.38399e-05 4.36689e-05
100 1 2.81608 0.932399 2.6199 2.02726e-05 2.89963e-05 7.27961e-06 3.61214e-05
101 1 1.52675 11.0732 4.53953 4.23146e-05 -1.26908e-05 5.91762e-06 4.45713e-05
102 1 2.47997 1.28517 6.15873 3.8609e-06 4.77704e-05 -5.05194e-05 6.96357e-05
103 1 1.28111 0.138144 8.14539 3.47551e-05 -1.49472e-05 -3.98544e-05 5.49518e-05
104 1 2.3231 1.68965 9.88602 -7.86175e-05 -1.16504e-06 -4.26271e-05 8.94379e-05
105 1 1.56869 1.70288 0.595969 4.06656e-05 3.78692e-05 -2.19459e-05 5.97444e-05
106 1 0.0772337 0.996805 5.95291 -3.00349e-06 3.75082e-05 1.97969e-05 4.25182e-05
107 1 2.58927 10.5865 10.3408 -8.19646e-06 -1.44661e-05 -2.08928e-05 2.67012e-05
108 1 3.85813 9.38491 8.61493 -3.99345e-06 5.12695e-05 -1.04044e-05 5.24668e-05
109 1 1.71192 10.6658 1.01175 2.0591e-06 6.4467e-05 -4.26534e-05 7.73275e-05
110 1 3.42625 4.91817 3.98729 1.68019e-05 3.34538e-06 3.04656e-06 1.74004e-05
111 1 6.77386 6.79097 5.81734 -5.48333e-06 -5.29681e-05 3.24128e-06 5.33498e-05
112 1 3.15101 5.2953 7.37268 1.86598e-05 -4.75639e-06 -9.76102e-06 2.15891e-05
113 1 4.07456 6.96142 8.93494 3.49539e-06 1.87851e-05 -1.34386e-05 2.33601e-05
114 1 2.75807 5.65122 10.4846 2.72814e-05 2.04128e-06 -9.17479e-05 9.57398e-05
115 1 2.05019 8.35023 1.43755 -2.68995e-05 3.53576e-05 -4.12773e-05 6.06429e-05
116 1 4.7453 6.11268 2.33765 -7.08131e-05 -3.27928e-05 1.19422e-05 7.89461e-05
117 1 7.11868 8.85693 2.41843 1.17832e-05 -9.54763e-05 -2.52708e-05 9.94645e-05
118 1 6.53574 9.2871 5.33607 -1.47742e-05 -3.8719e-05 -4.65168e-06 4.17022e-05
119 1 5.25869 8.10408 7.12455 3.02873e-05 1.51349e-05 2.94761e-05 4.48913e-05
120 1 6.21335 9.63405 8.79139 8.33145e-07 -4.04017e-05 7.84415e-05 8.82387e-05
121 1 2.61513 8.15574 10.3826 -1.7899e-06 5.1753e-05 -1.93317e-05 5.52747e-05
122 1 6.09181 10.0822 0.703692 4.47625e-05 -9.96428e-05 -8.2921e-05 0.000137143
123 1 5.45065 10.2577 3.23997 2.94819e-05 2.63052e-05 3.2234e-05 5.0992e-05
124 1 5.60092 7.71551 3.83732 1.50831e-05 -1.11229e-05 -5.90924e-05 6.1993e-05
125 1 0.704068 9.19938 11.0927 5.84177e-05 3.54084e-05 6.74688e-06 6.86433e-05
126 1 3.83395 4.57526 0.633423 -6.89776e-05 3.42333e-05 1.63865e-05 7.87296e-05
127 1 4.30515 4.36338 9.37006 -7.63816e-05 -5.59826e-05 4.29278e-05 0.000103976
128 1 2.96819 9.88483 3.08611 -6.70566e-06 1.46896e-05 1.90384e-05 2.49642e-05
129 1 2.64663 10.2291 6.57453 1.28321e-05 1.97805e-06 -1.34311e-05 1.86807e-05
130 1 0.495563 0.233654 10.6216 -3.12516e-06 7.07701e-05 2.94008e-05 7.6698e-05
131 1 5.21591 1.19804 2.6511 4.37426e-05 -4.29559e-05 1.25176e-05 6.25724e-05
132 1 3.93815 0.0873485 4.68777 1.02855e-05 -3.48544e-05 -6.64631e-05 7.57493e-05
133 1 4.86532 1.60991 6.36932 -1.44046e-05 2.42355e-05 2.31612e-06 2.82881e-05
134 1 1.9036 3.99495 9.12138 1.10599e-05 4.40708e-05 -3.65306e-06 4.5584e-05
135 1 3.6136 0.441626 8.24937 -9.27698e-06 1.5175e-05 -0.000111152 0.000112566
136 1 3.965 10.9652 0.914533 -4.54238e-05 -2.67633e-05 2.93054e-05 6.03192e-05
137 1 3.83039 2.15249 0.593285 4.51482e-05 -2.02414e-05 -4.08792e-05 6.41809e-05
138 1 4.92566 3.66062 2.56518 2.70484e-05 -2.18809e-05 -1.01601e-05 3.62438e-05
139 1 3.74978 2.45101 4.30876 1.1472e-05 3.82021e-05 -2.28246e-05 4.59562e-05
140 1 4.6371 4.02271 5.9825 1.93877e-06 -6.73706e-05 3.49535e-07 6.73994e-05
141 1 3.40128 2.81044 7.78209 -7.97178e-06 6.04595e-06 -2.23054e-05 2.44465e-05
142 1 4.58552 1.99163 9.86335 6.09701e-05 1.44314e-05 6.28089e-05 8.87163e-05
143 1 9.60216 0.00239898 10.5578 -4.17354e-06 1.4396e-05 3.0972e-05 3.44083e-05
