ITEM: TIMESTEP
0
ITEM: NUMBER OF ATOMS
135
ITEM: BOX BOUNDS pp pp pp
0.0000000000000000e+00 1.1396901000000000e+01
0.0000000000000000e+00 1.2680864000000000e+01
0.0000000000000000e+00 1.2228524999999999e+01
ITEM: ATOMS id type x y z fx fy fz v_fmag
1 1 1.97666 0.932058 11.5329 -9.03164e-06 -7.71373e-05 1.26828e-05 7.8693e-05
2 1 7.37418 2.19998 2.51455 2.59262e-05 1.17138e-05 -2.07729e-05 3.52263e-05
3 1 9.89193 4.7362 1.99873 6.10681e-06 -1.55045e-05 2.27246e-06 1.6818e-05
4 1 9.18383 2.20004 10.343 1.39295e-05 -1.90643e-05 -6.16217e-06 2.44019e-05
5 1 0.274867 2.20008 9.83124 -2.43408e-05 -1.78503e-05 1.3396e-05 3.30236e-05
6 1 9.98061 0.931978 8.13353 1.1575e-06 -1.80955e-05 -3.12862e-05 3.6161e-05
7 1 8.29601 2.19998 6.43486 -1.18791e-05 2.49597e-05 -1.15376e-05 2.99536e-05
8 1 7.37418 12.3447 2.51455 4.03749e-05 1.22979e-05 -8.94297e-06 4.31433e-05
9 1 9.89193 2.20003 1.99873 2.05849e-05 -8.22597e-06 1.07307e-05 2.46283e-05
10 1 9.18383 12.3447 10.343 -1.82544e-05 -1.42033e-05 1.10484e-05 2.56325e-05
11 1 7.51947 11.0766 8.63852 -2.2094e-05 1.60598e-06 6.84362e-07 2.21628e-05
12 1 5.82316 9.80855 6.95988 -1.31892e-05 -1.72367e-05 2.67019e-05 3.44101e-05
13 1 6.62178 11.0766 4.79406 -1.68622e-05 3.50368e-05 -2.34455e-05 4.54049e-05
14 1 5.77121 11.0766 0.723791 -4.36379e-07 8.66181e-06 -1.44341e-05 1.68393e-05
15 1 8.29348 11.0766 0.316886 8.86484e-07 5.1063e-06 -3.44832e-05 3.48705e-05
16 1 8.296 4.73615 6.43486 -2.66494e-06 2.3722e-05 -1.06367e-05 2.61337e-05
17 1 6.71185 9.80848 10.8191 3.13308e-05 2.14885e-05 -2.00951e-05 4.29789e-05
18 1 5.82316 7.27238 6.95988 -4.06191e-06 -1.53919e-05 1.53101e-05 2.20864e-05
19 1 6.62177 8.54039 4.79405 -2.33096e-06 3.44417e-05 -1.22511e-05 3.66299e-05
20 1 5.77121 8.54042 0.723789 -9.38712e-06 1.91505e-05 -1.22435e-05 2.45919e-05
21 1 8.29348 8.54044 0.316882 1.8114e-05 -1.69353e-05 -2.09104e-05 3.24371e-05
22 1 6.71185 7.27231 10.8191 1.25607e-05 1.2439e-05 -1.88601e-05 2.58496e-05
23 1 7.51946 6.00424 8.63852 7.52441e-06 -2.77436e-06 -6.49627e-06 1.03206e-05
24 1 5.82316 4.73621 6.95988 -9.78628e-06 9.75208e-07 9.96709e-06 1.40023e-05
25 1 6.62177 6.00422 4.79405 -1.20894e-05 3.54982e-05 -1.49991e-06 3.75303e-05
26 1 5.77121 6.00425 0.723787 8.18148e-06 1.68022e-05 -5.17841e-06 1.93924e-05
27 1 8.29348 6.00427 0.31688 1.38276e-05 5.02577e-06 -4.43982e-06 1.53679e-05
28 1 6.71185 4.73614 10.8191 -9.58761e-06 1.11025e-05 -2.39445e-05 2.80807e-05
29 1 7.51946 3.46806 8.63852 5.0085e-06 -5.20518e-06 1.94903e-06 7.48183e-06
30 1 5.82316 2.20003 6.95988 -6.2605e-06 -1.2717e-05 2.7947e-05 3.13361e-05
31 1 6.62177 3.46804 4.79406 -1.24083e-05 3.49043e-05 -1.24022e-05 3.90652e-05
32 1 7.51947 8.54041 8.63852 -4.3351e-06 -1.72827e-05 -9.39155e-06 2.01417e-05
33 1 5.77121 3.46808 0.723788 8.6256e-06 2.35841e-05 -4.84679e-07 2.51167e-05
34 1 9.98061 3.46815 8.13352 1.90928e-05 -7.63795e-06 -2.482e-05 3.22321e-05
35 1 9.18383 4.73622 10.343 1.70507e-05 -2.76881e-05 -6.55177e-06 3.31705e-05
36 1 10.8157 11.0766 12.0282 -1.26705e-05 1.0694e-05 2.94386e-06 1.68395e-05
37 1 10.7386 9.80855 5.89313 -1.32203e-05 8.59909e-06 -1.23368e-05 2.00229e-05
38 1 9.05977 8.54043 4.19478 -4.22592e-06 1.45429e-05 8.48658e-06 1.73602e-05
39 1 10.8157 8.54047 12.0282 -3.07606e-06 2.01028e-05 5.71088e-06 2.11234e-05
40 1 10.7386 7.27238 5.89312 -1.1484e-05 1.06346e-05 -1.15671e-05 1.94621e-05
41 1 9.05977 6.00426 4.19478 -2.66167e-06 1.45003e-05 1.81024e-05 2.33461e-05
42 1 10.8157 6.0043 12.0282 -7.48411e-06 -1.73512e-06 6.43243e-06 1.00199e-05
43 1 10.7386 4.73621 5.89312 -1.20068e-05 1.2938e-05 -1.35106e-06 1.77025e-05
44 1 9.05977 3.46809 4.19478 1.62403e-05 4.84907e-06 1.03963e-05 1.98832e-05
45 1 10.8157 3.46813 12.0282 -1.29669e-05 9.77223e-06 -9.63591e-06 1.88809e-05
46 1 10.7386 2.20003 5.89312 -5.59302e-06 1.35875e-05 -1.30423e-07 1.46942e-05
47 1 9.05977 0.931916 4.19478 6.2603e-06 3.3656e-06 3.07061e-06 7.74256e-06
48 1 10.8157 0.931958 12.0282 -1.32061e-05 -6.74515e-06 -3.61065e-06 1.52622e-05
49 1 0.274865 12.3448 9.83124 1.06514e-05 -1.01339e-05 1.31379e-06 1.47606e-05
50 1 0.274867 4.73625 9.83124 -1.14274e-05 -2.63301e-05 1.61159e-06 2.87482e-05
51 1 9.98061 11.0767 8.13352 2.81996e-05 -1.934e-05 -3.29579e-05 4.74919e-05
52 1 7.37418 9.8085 2.51454 4.68339e-05 1.94842e-05 -6.01749e-06 5.10809e-05
53 1 9.89193 12.3447 1.99872 5.05423e-06 -7.89438e-07 1.09724e-05 1.21063e-05
54 1 9.18383 9.80856 10.343 -6.51287e-06 -1.6758e-05 1.3952e-05 2.27576e-05
55 1 0.274869 9.8086 9.83124 -1.13506e-05 -2.36199e-05 -2.68118e-06 2.63424e-05
56 1 9.98061 8.54049 8.13352 -1.05025e-05 -9.695e-06 -1.53852e-05 2.1e-05
57 1 8.296 9.8085 6.43486 9.35563e-06 8.79671e-06 -7.11614e-06 1.46816e-05
58 1 7.37418 7.27233 2.51455 3.7522e-05 7.57769e-06 -1.8651e-05 4.25815e-05
59 1 9.89193 9.80855 1.99872 5.58913e-06 -1.93658e-05 1.67868e-05 2.62311e-05
60 1 9.18383 7.27239 10.343 8.55461e-06 -2.69331e-05 -3.29222e-06 2.84501e-05
61 1 0.274871 7.27243 9.83124 -2.13635e-05 -2.46101e-05 -8.28466e-07 3.25997e-05
62 1 9.98061 6.00432 8.13352 7.1354e-07 -1.96167e-05 -1.52224e-05 2.48404e-05
63 1 8.296 7.27232 6.43486 -6.81696e-06 8.79604e-06 -1.31215e-05 1.72051e-05
64 1 7.37418 4.73616 2.51455 3.43401e-05 2.61117e-06 -3.08568e-05 4.62408e-05
65 1 9.89193 7.27237 1.99873 2.51018e-05 -1.50272e-05 -1.77992e-06 2.93102e-05
66 1 8.296 12.3447 6.43486 -2.41042e-07 1.65297e-06 -4.62299e-07 1.73324e-06
67 1 9.05977 11.0766 4.19479 8.50445e-06 6.76283e-06 -3.08185e-06 1.12942e-05
68 1 8.29348 3.4681 0.316884 1.66002e-05 -4.30462e-06 -1.20485e-05 2.09586e-05
69 1 7.51946 0.931894 8.63852 4.58472e-06 -1.69024e-05 2.42319e-06 1.76801e-05
70 1 4.24009 2.20029 11.1694 1.60576e-05 -2.99334e-05 -5.35206e-05 6.33901e-05
71 1 2.70942 12.3447 9.14626 -4.49514e-05 1.37847e-05 2.23632e-05 5.20649e-05
72 1 1.02346 11.0766 7.56644 -3.377e-05 -1.49551e-06 2.42289e-05 4.15895e-05
73 1 1.80881 12.3446 5.3894 1.24528e-05 2.00005e-05 -1.77557e-05 2.95018e-05
74 1 0.134386 11.0766 3.6893 1.44893e-05 1.93288e-05 -7.01239e-07 2.41668e-05
75 1 1.0043 12.3448 1.49849 -4.71219e-06 -1.00156e-05 2.12388e-05 2.395e-05
76 1 1.97666 11.0767 11.5329 1.13686e-05 -4.02703e-05 1.3709e-05 4.40327e-05
77 1 2.70942 9.80851 9.14626 -2.6044e-05 1.93652e-05 2.17001e-05 3.90409e-05
78 1 1.02346 8.54042 7.56644 2.40357e-06 -1.43122e-05 1.57963e-05 2.14509e-05
79 1 1.80881 9.80845 5.3894 2.5588e-05 2.332e-05 -2.97314e-05 4.56347e-05
80 1 0.134383 8.54047 3.6893 2.00126e-05 1.00299e-05 -5.75385e-06 2.3113e-05
81 1 1.0043 9.80858 1.49849 -4.83442e-06 -1.58157e-05 2.26128e-05 2.80151e-05
82 1 1.97666 8.54058 11.5329 -1.41064e-05 -6.06965e-05 1.29403e-05 6.36436e-05
83 1 2.70942 7.27234 9.14626 -3.50114e-05 2.07344e-05 3.00229e-06 4.08011e-05
84 1 3.50465 2.19978 1.25147 -3.38881e-05 1.26177e-05 2.81831e-05 4.58465e-05
85 1 1.02346 6.00425 7.56644 -4.12925e-06 1.67681e-05 9.09704e-06 1.95186e-05
86 1 0.134378 6.00429 3.68931 5.36264e-05 2.04821e-05 -1.49416e-05 5.93174e-05
87 1 1.0043 7.27241 1.49849 -2.53876e-05 -2.46335e-05 2.071e-05 4.09908e-05
88 1 1.97666 6.0044 11.5329 -1.75246e-05 -4.93852e-05 1.72665e-05 5.51738e-05
89 1 2.70942 4.73617 9.14626 -3.45024e-05 8.20357e-07 1.03358e-05 3.60266e-05
90 1 1.02346 3.46807 7.56644 -1.69983e-05 1.60112e-05 -1.3564e-07 2.3352e-05
91 1 1.80881 4.7361 5.38939 1.87839e-05 2.36788e-05 4.24761e-06 3.05215e-05
92 1 0.134386 3.46812 3.68931 7.07554e-06 1.68179e-05 -1.31826e-05 2.25097e-05
93 1 1.00429 4.73624 1.49849 2.57734e-05 -1.07192e-05 2.47622e-05 3.7314e-05
94 1 1.97666 3.46823 11.5329 -1.5056e-05 -5.94104e-05 1.63565e-05 6.34335e-05
95 1 2.70941 2.2 9.14626 7.12764e-06 1.84653e-05 2.85156e-05 3.47118e-05
96 1 1.02346 0.931904 7.56644 -1.67684e-05 -4.19356e-06 -1.75906e-07 1.72857e-05
97 1 1.80881 2.19992 5.38939 3.25853e-05 3.55273e-05 -2.65959e-07 4.82085e-05
98 1 0.134385 0.931946 3.68931 2.49045e-05 3.27725e-06 -1.5011e-05 2.92626e-05
99 1 1.0043 2.20006 1.49849 1.81116e-05 -3.16154e-06 3.30461e-05 3.78162e-05
100 1 1.8088 7.27228 5.38939 2.13193e-05 3.05411e-07 -4.26031e-06 2.1743e-05
101 1 6.71185 2.19997 10.8191 -4.11178e-06 1.07184e-06 -2.87656e-05 2.90777e-05
102 1 2.59507 0.931775 3.26785 -1.38435e-05 7.62092e-05 1.73103e-05 7.93671e-05
103 1 3.52344 0.93186 6.949 -7.34136e-06 3.1008e-05 3.08188e-05 4.43305e-05
104 1 5.82316 12.3447 6.95989 -1.09211e-05 -7.74051e-06 1.69438e-05 2.15935e-05
105 1 6.62178 0.931872 4.79406 -2.05552e-05 2.82901e-05 -2.64088e-05 4.38209e-05
106 1 5.77121 0.931905 0.723789 -9.60756e-06 7.86788e-06 -2.15598e-06 1.26038e-05
107 1 8.29348 0.931926 0.316885 2.20366e-05 -2.05565e-05 -2.33518e-05 3.81246e-05
108 1 6.71185 12.3447 10.8191 5.1746e-05 4.75323e-06 -2.85309e-05 5.92811e-05
109 1 5.0332 0.932059 9.09393 1.21602e-05 1.33701e-05 -2.40238e-05 3.00628e-05
110 1 3.52344 11.0766 6.94901 -1.48159e-06 7.57485e-06 2.2302e-05 2.35998e-05
111 1 4.32786 12.3446 4.79248 -1.34268e-05 8.77976e-06 1.22277e-05 2.01713e-05
112 1 2.59506 11.0765 3.26785 -1.33464e-05 -8.28265e-06 4.18293e-05 4.46813e-05
113 1 3.50465 12.3445 1.25149 4.47449e-05 3.59204e-05 -0.000131677 0.000143636
114 1 4.2401 12.345 11.1694 -6.63372e-05 -5.04143e-05 0.000128543 0.000153185
115 1 5.0332 11.0768 9.09393 2.90734e-05 -6.26389e-05 -3.54727e-05 7.76351e-05
116 1 3.52344 8.54038 6.949 -1.70807e-05 8.74497e-06 2.49407e-05 3.14685e-05
117 1 4.32786 9.80844 4.79248 -2.40055e-05 -6.23243e-06 1.10627e-05 2.71568e-05
118 1 4.32786 2.19992 4.79248 -3.41699e-05 -1.36492e-06 1.33569e-05 3.67131e-05
119 1 2.59506 8.54029 3.26785 -5.06592e-07 6.73799e-05 2.78384e-05 7.2906e-05
120 1 4.2401 9.80882 11.1694 -3.10778e-05 -5.15297e-05 5.84287e-05 8.38752e-05
121 1 5.0332 8.54058 9.09393 2.48169e-05 -1.4583e-05 -2.14306e-05 3.58861e-05
122 1 3.52344 6.00421 6.949 -1.1315e-05 5.65408e-06 3.81817e-05 4.02224e-05
123 1 4.32786 7.27226 4.79248 -1.52033e-05 1.01691e-05 1.73564e-05 2.5215e-05
124 1 2.59506 6.00413 3.26785 -2.27472e-05 1.14451e-05 2.32516e-05 3.44828e-05
125 1 3.50465 7.27213 1.25148 2.30094e-05 1.93735e-05 -5.01377e-05 5.84685e-05
126 1 4.24009 7.27264 11.1694 -9.57342e-06 -4.39697e-05 4.18387e-05 6.14448e-05
127 1 5.03321 6.0044 9.09393 6.32487e-06 -2.40616e-05 -1.98924e-05 3.18539e-05
128 1 3.52344 3.46803 6.949 -1.45208e-05 2.81331e-05 2.40703e-05 3.97706e-05
129 1 4.32786 4.73609 4.79248 -1.62361e-05 -1.62995e-06 2.34209e-05 2.85448e-05
130 1 2.59506 3.46795 3.26785 2.84521e-06 2.01587e-05 -4.06944e-06 2.07613e-05
131 1 3.50465 4.73595 1.25147 -3.07375e-05 2.42395e-05 1.30254e-05 4.12554e-05
132 1 4.24009 4.73647 11.1694 1.75999e-05 -5.5138e-05 -1.32431e-05 5.93746e-05
133 1 5.03321 3.46824 9.09393 -8.63187e-06 -6.07605e-05 7.03196e-06 6.17721e-05
134 1 3.50465 9.8083 1.25148 1.80908e-05 2.21917e-05 -6.18519e-05 6.81572e-05
135 1 10.7386 12.3447 5.89313 1.75565e-06 2.63486e-05 -8.93144e-06 2.78766e-05
