ITEM: TIMESTEP
0
ITEM: NUMBER OF ATOMS
130
ITEM: BOX BOUNDS pp pp pp
0.0000000000000000e+00 1.1400361000000000e+01
0.0000000000000000e+00 1.2098903999999999e+01
0.0000000000000000e+00 1.2816801000000000e+01
ITEM: ATOMS id type x y z fx fy fz v_fmag
1 1 0.108519 4.03876 4.00898 5.608e-05 2.86151e-05 7.13407e-06 6.33616e-05
2 1 7.44722 0.130199 11.2456 -2.11043e-06 -6.73706e-06 3.81656e-05 3.88131e-05
3 1 8.45252 10.9749 9.07222 9.58468e-06 -3.32946e-05 3.73783e-06 3.48478e-05
4 1 6.58939 11.2565 5.04364 4.80998e-05 2.03682e-05 -3.07578e-05 6.06176e-05
5 1 6.54321 11.2075 0.651692 -3.46963e-06 6.57402e-06 -4.47075e-07 7.44688e-06
6 1 9.98106 9.70186 10.7538 6.13139e-05 3.10569e-05 3.10731e-05 7.54285e-05
7 1 7.50949 8.61723 8.75722 1.51737e-05 1.29036e-05 -2.16837e-05 2.94436e-05
8 1 8.29859 10.0311 6.60736 5.64755e-05 4.45641e-05 3.22064e-05 7.88206e-05
9 1 7.0659 8.76678 4.65631 -1.13578e-05 -2.26643e-05 -2.73385e-05 3.72836e-05
10 1 8.09491 10.1289 2.46311 -7.81755e-06 -1.48662e-05 3.73797e-05 4.098e-05
11 1 6.53699 8.71437 0.778091 -3.06025e-06 -3.41455e-05 3.52348e-05 4.91606e-05
12 1 8.84479 7.43329 10.6672 -1.126e-05 2.91839e-05 -2.29567e-06 3.13649e-05
13 1 6.99936 6.16794 8.98855 -3.16318e-05 2.86256e-05 -4.23649e-05 6.0123e-05
14 1 8.61875 7.48384 6.33914 -2.42309e-05 -5.04478e-06 2.11212e-05 3.25375e-05
15 1 9.59211 0.388126 2.40508 5.62891e-05 8.19944e-05 -5.06822e-05 0.000111625
16 1 7.14216 6.15711 4.5693 1.1887e-05 -1.01815e-06 -2.13879e-05 2.44904e-05
17 1 6.62117 6.2382 0.726593 -1.44606e-05 6.30014e-06 -1.56891e-05 2.22474e-05
18 1 7.68716 5.17605 11.3254 2.12249e-05 -3.21664e-05 -2.91932e-05 4.83468e-05
19 1 6.02175 3.8834 9.62594 -8.47822e-06 4.19025e-06 -8.07589e-06 1.24362e-05
20 1 7.93723 5.0682 6.8176 -2.7331e-06 -8.09765e-06 -2.06689e-05 2.23661e-05
21 1 6.24361 3.82147 5.18032 2.76669e-05 -2.79505e-05 -3.13789e-05 5.03123e-05
22 1 8.18765 5.02568 2.35704 -8.44158e-06 -1.07933e-05 1.88803e-05 2.33285e-05
23 1 6.64699 3.71195 0.639926 -1.09248e-05 1.08501e-05 -8.31963e-06 1.75012e-05
24 1 7.56932 2.64802 11.2472 -3.78721e-05 2.42653e-05 -1.88269e-06 4.50182e-05
25 1 5.94425 1.30136 9.56522 -2.19609e-05 2.31541e-05 2.90606e-06 3.20443e-05
26 1 6.95222 2.74749 7.44315 -8.52718e-06 -1.4507e-05 -3.48786e-05 3.87257e-05
27 1 5.32266 1.41709 5.71712 2.26154e-05 2.06754e-05 1.50741e-06 3.0679e-05
28 1 7.11053 2.76952 2.97775 2.0313e-06 -7.54502e-06 8.83782e-06 1.17966e-05
29 1 5.42257 1.39038 1.2485 -2.37761e-05 1.07042e-05 2.08784e-05 3.34034e-05
30 1 8.10383 7.56594 2.47999 -1.86545e-05 -2.22878e-05 1.15287e-05 3.12674e-05
31 1 7.98491 1.50744 0.716939 2.78365e-05 -2.23227e-05 8.07398e-06 3.65836e-05
32 1 9.62153 2.89117 2.45551 1.02118e-05 -3.93754e-05 -9.31754e-06 4.17315e-05
33 1 7.82616 1.57956 5.2134 -4.95862e-06 2.31588e-06 -1.91833e-05 1.99487e-05
34 1 10.3675 1.78174 4.72433 3.63097e-05 -1.35912e-05 3.08121e-06 3.88923e-05
35 1 10.9221 1.6552 8.72089 4.80372e-06 1.48953e-05 -4.24353e-05 4.52295e-05
36 1 9.34282 0.331664 6.94693 -1.17691e-05 3.33018e-06 -3.32674e-05 3.54447e-05
37 1 10.5903 1.37457 0.195362 -8.05812e-07 2.40795e-05 2.27687e-05 3.31495e-05
38 1 9.95477 0.160924 10.788 -5.90975e-06 3.79682e-05 2.70491e-05 4.69911e-05
39 1 10.917 11.1969 8.61077 2.44768e-05 -2.58489e-05 1.22211e-05 3.76382e-05
40 1 9.05943 11.4395 4.56771 -2.41498e-05 -4.67964e-05 8.78465e-05 0.000102421
41 1 9.05105 11.3196 0.189834 7.15707e-07 5.39221e-05 -4.90097e-06 5.41491e-05
42 1 0.0802713 10.8379 12.5302 2.6348e-05 6.57728e-05 -1.16457e-06 7.08635e-05
43 1 9.93749 8.83642 8.20674 7.27848e-06 -3.834e-06 2.10288e-05 2.25806e-05
44 1 10.752 10.284 6.12722 -3.46435e-05 2.45747e-05 4.11764e-05 5.91573e-05
45 1 9.55359 8.92197 4.22599 -3.21639e-05 1.60075e-05 -7.80085e-07 3.59356e-05
46 1 10.6106 10.211 2.063 2.41636e-05 -3.24627e-05 8.14664e-06 4.12804e-05
47 1 9.06329 8.86752 0.347368 2.35081e-05 -5.07036e-05 2.84488e-05 6.27122e-05
48 1 11.3144 8.07557 12.3959 -3.21417e-05 -2.94883e-05 -7.49277e-06 4.42582e-05
49 1 9.67414 6.29526 8.41088 -1.68706e-05 2.10472e-05 2.35564e-05 3.58121e-05
50 1 11.0787 7.71513 5.92441 -2.46547e-05 -1.75858e-05 3.45544e-05 4.5947e-05
51 1 9.66767 6.30887 4.12194 -2.42424e-05 5.41999e-06 1.20679e-05 2.76171e-05
52 1 10.6413 7.70018 2.08702 -1.8774e-05 1.11347e-05 5.87688e-06 2.26049e-05
53 1 9.18739 6.39182 0.247007 3.7879e-05 3.74143e-05 2.98515e-05 6.1039e-05
54 1 10.3449 5.30474 10.8026 3.58843e-05 -7.28505e-07 -2.37532e-05 4.30398e-05
55 1 8.62644 4.05959 9.14409 8.57899e-06 3.1904e-06 -1.16247e-05 1.47956e-05
56 1 10.6265 5.20047 6.22076 5.59051e-06 2.02804e-05 -1.34781e-05 2.49841e-05
57 1 8.83626 3.94715 4.66557 -2.19921e-05 1.82476e-05 -1.50887e-05 3.23156e-05
58 1 10.7226 5.1642 1.91054 -3.76531e-05 1.02484e-05 3.01657e-05 4.9323e-05
59 1 9.19327 3.82024 0.151332 1.05515e-05 2.5301e-05 -2.07714e-06 2.74917e-05
60 1 10.024 2.71784 10.8277 8.56771e-06 1.50521e-05 -1.02417e-05 2.01212e-05
61 1 8.43926 1.46673 9.10907 -3.98644e-05 -1.41999e-05 2.20685e-05 4.77266e-05
62 1 9.554 2.93104 6.96096 -7.23349e-06 2.73474e-06 -3.00208e-07 7.73901e-06
63 1 6.88168 0.129165 7.40996 4.94333e-05 -1.88211e-05 1.99874e-05 5.65454e-05
64 1 7.07529 0.297593 2.89821 -3.35347e-05 -4.27983e-05 3.30523e-05 6.36296e-05
65 1 4.93347 12.0491 11.7007 -7.08421e-06 6.71091e-06 9.79265e-07 9.80721e-06
66 1 5.99202 10.7789 9.56184 5.19357e-05 2.97003e-06 7.83174e-06 5.26068e-05
67 1 2.15839 8.03389 5.61591 1.24898e-05 -1.92969e-06 2.15954e-05 2.50216e-05
68 1 3.03246 10.057 3.42894 -2.69604e-05 -3.27517e-06 -3.14488e-05 4.15526e-05
69 1 1.47919 8.90898 1.53289 -2.63649e-06 -3.5711e-05 3.60926e-05 5.0842e-05
70 1 3.6652 7.20154 11.6861 4.12456e-06 1.12591e-05 -1.0216e-06 1.20342e-05
71 1 1.69702 5.60778 10.0528 1.19546e-05 -1.44695e-05 -1.87808e-05 2.65518e-05
72 1 3.60732 6.88241 7.28788 -4.38547e-06 1.55936e-05 9.97533e-06 1.90237e-05
73 1 1.91645 5.42817 5.63216 -9.33849e-06 1.19944e-05 -1.08799e-05 1.86935e-05
74 1 3.02499 7.45699 3.24973 -1.25795e-05 -2.99633e-06 1.36197e-05 1.87808e-05
75 1 1.55218 6.34723 1.32924 -8.02253e-06 -4.2441e-05 7.29824e-06 4.38049e-05
76 1 2.58662 4.76339 12.2719 2.79194e-05 -1.37295e-05 -5.50319e-06 3.15955e-05
77 1 1.05649 3.15815 10.6133 -1.59995e-05 3.42899e-06 1.13166e-05 1.9895e-05
78 1 2.64758 4.54265 7.92299 -3.82129e-07 -3.11635e-06 1.07251e-05 1.11753e-05
79 1 0.837392 3.15042 6.34648 1.61796e-05 1.63703e-05 -2.40997e-06 2.31425e-05
80 1 2.94035 4.81985 3.28949 -4.43316e-06 -2.45169e-05 -5.24088e-06 2.54597e-05
81 1 1.49509 3.67715 1.58404 1.81608e-05 2.48836e-05 -1.55861e-05 3.45244e-05
82 1 2.65773 2.0891 12.2946 -1.64768e-05 9.2602e-06 -5.4096e-05 5.73029e-05
83 1 1.0209 0.525699 10.5237 1.72278e-05 4.25456e-05 -3.73448e-05 5.9174e-05
84 1 1.91632 2.1476 8.40969 -3.43727e-05 1.38769e-05 1.30648e-05 3.93031e-05
85 1 0.389758 0.612838 6.52265 -1.16265e-05 1.81656e-05 2.47031e-06 2.17087e-05
86 1 2.05966 2.41373 4.15211 -2.93265e-06 -4.5964e-05 -3.33807e-06 4.61782e-05
87 1 0.389192 1.60764 2.48534 -6.59521e-05 -4.14585e-05 3.02059e-05 8.35517e-05
88 1 4.43052 11.9944 7.91416 2.35862e-05 -6.99439e-06 -4.14001e-06 2.49474e-05
89 1 0.183722 11.6938 4.07419 -2.37919e-05 -1.44396e-05 -1.33528e-05 3.08684e-05
90 1 1.9559 11.6214 8.24088 4.13998e-05 -1.45918e-05 -8.92237e-06 4.47937e-05
91 1 1.03942 9.96975 10.2335 -9.81135e-06 5.27376e-06 -8.79881e-06 1.41949e-05
92 1 0.979865 9.13486 7.76848 -2.65148e-05 -1.1189e-05 3.69815e-05 4.686e-05
93 1 0.657321 9.14758 3.91421 -5.0945e-05 2.23241e-05 -3.07724e-05 6.35665e-05
94 1 0.965518 6.53025 7.75659 -3.46179e-06 -6.23052e-06 -7.22987e-06 1.01526e-05
95 1 0.744792 6.54557 3.76486 -2.88921e-05 -1.7927e-05 6.98378e-05 7.76752e-05
96 1 3.4293 9.48746 7.46052 4.18217e-05 3.53207e-05 -3.89264e-05 6.71704e-05
97 1 11.3172 4.23158 8.57539 -4.21695e-07 1.17943e-05 -1.89646e-06 1.19532e-05
98 1 2.54606 7.95199 9.41919 -1.04354e-05 1.17471e-05 1.38526e-05 2.09472e-05
99 1 1.45657 11.441 1.88964 -1.22121e-05 -3.16876e-05 1.19059e-05 3.5986e-05
100 1 4.19807 11.0811 5.58142 -0.000117442 -1.30959e-05 6.43247e-05 0.000134542
101 1 4.00016 11.2352 1.18176 -3.18797e-05 -1.84454e-05 -9.73678e-06 3.80967e-05
102 1 7.49784 9.66173 11.2977 6.25499e-06 2.29015e-05 -4.25733e-05 4.87451e-05
103 1 5.04147 8.35372 9.17078 1.94897e-05 -2.05696e-05 -3.32775e-05 4.37076e-05
104 1 5.86975 9.81824 7.10966 -5.74305e-05 -2.87291e-05 -7.91529e-06 6.47014e-05
105 1 4.56833 8.61553 5.08675 -3.65298e-06 2.86914e-05 -2.8617e-05 4.06876e-05
106 1 5.56881 10.0382 2.91288 -1.81483e-05 -2.44312e-05 1.07362e-07 3.04345e-05
107 1 4.01939 8.67997 1.21199 -1.33761e-06 -1.40288e-05 3.04747e-06 1.44182e-05
108 1 6.2582 7.33487 11.203 -3.2103e-05 -2.09746e-05 -2.4682e-05 4.56041e-05
109 1 4.34699 5.92735 9.54242 2.6088e-05 -2.57969e-05 -2.59598e-06 3.67805e-05
110 1 6.11826 7.2817 6.7768 2.04972e-06 3.03674e-05 -4.72606e-05 5.62134e-05
111 1 4.53003 5.99345 4.99364 1.46677e-05 -1.21088e-05 -2.45754e-05 3.10759e-05
112 1 5.57109 7.45856 2.91983 1.74605e-05 -2.12521e-05 -1.50729e-05 3.13642e-05
113 1 4.08396 6.13176 1.19147 1.9464e-05 -5.60472e-06 7.37266e-06 2.15549e-05
114 1 5.10421 5.02339 11.8219 3.53908e-05 -1.40604e-05 -1.88356e-05 4.24851e-05
115 1 3.49673 3.59285 10.1518 5.93491e-06 -1.73477e-05 -3.60386e-05 4.04345e-05
116 1 5.3066 4.8928 7.33443 1.78618e-05 -2.0717e-05 9.79305e-06 2.90541e-05
117 1 3.67463 3.59724 5.73068 6.33524e-06 -1.20168e-05 -2.67478e-06 1.38453e-05
118 1 5.62787 4.90753 2.83135 2.08074e-06 1.03899e-05 -2.2338e-05 2.47237e-05
119 1 4.0991 3.59981 1.12089 5.69102e-06 -6.0534e-06 2.04093e-05 2.20357e-05
120 1 5.10766 2.46504 11.7476 -2.47271e-05 2.01399e-05 7.24939e-06 3.27047e-05
121 1 3.45548 1.03267 10.0124 -4.12293e-06 -8.19608e-06 2.92204e-06 9.62873e-06
122 1 4.40633 2.5188 7.93984 -2.64999e-06 1.27382e-05 -3.10921e-05 3.37046e-05
123 1 2.84438 1.11923 6.2276 4.18624e-05 -7.16845e-06 4.35614e-05 6.08395e-05
124 1 4.57119 2.70996 3.49963 -5.48758e-06 -3.67491e-05 -3.46087e-05 5.07777e-05
125 1 2.91765 1.45486 1.9262 3.22577e-05 -1.12508e-06 1.9416e-05 3.7667e-05
126 1 4.54442 0.213982 3.46174 -2.34417e-05 3.70123e-05 -5.7925e-05 7.26273e-05
127 1 3.51933 10.4681 9.87122 1.62539e-05 -1.54718e-05 -8.64609e-06 2.40483e-05
128 1 1.80048 10.6326 5.77454 4.95592e-05 1.91206e-05 1.57902e-05 5.5417e-05
129 1 4.98545 9.50559 11.726 1.4293e-05 9.70908e-06 4.43496e-05 4.75967e-05
130 1 11.3817 7.59269 9.88117 3.84552e-06 2.47342e-05 1.25953e-05 2.80216e-05
