ITEM: TIMESTEP
0
ITEM: NUMBER OF ATOMS
158
ITEM: BOX BOUNDS pp pp pp
0.0000000000000000e+00 1.1400361000000000e+01
0.0000000000000000e+00 1.2098903999999999e+01
0.0000000000000000e+00 1.2816801000000000e+01
ITEM: ATOMS id type x y z fx fy fz v_fmag
1 1 11.3718 4.40273 12.2906 8.67893e-07 -3.43767e-05 2.28768e-05 4.13021e-05
2 1 8.29814 11.5871 4.92521 6.4562e-05 1.57199e-05 7.75792e-05 0.000102146
3 1 7.03951 10.6484 7.05551 1.35258e-06 -1.35023e-05 1.41746e-05 1.9623e-05
4 1 7.53093 11.6007 9.33014 -1.05544e-05 -3.35884e-05 -3.40165e-05 4.89561e-05
5 1 6.25225 10.7869 11.4249 -8.52837e-06 4.13282e-05 -4.31086e-05 6.0325e-05
6 1 9.12059 11.3971 0.815824 -8.49189e-05 -4.6228e-06 -6.79118e-06 8.53153e-05
7 1 9.58584 0.402746 2.8992 -8.08068e-05 3.74584e-05 -5.66195e-05 0.00010554
8 1 8.76641 0.391454 7.23547 6.40407e-06 -4.97714e-05 -7.99599e-05 9.44023e-05
9 1 8.03418 0.552318 11.6343 -1.54452e-05 -5.00851e-06 3.22594e-05 3.61152e-05
10 1 9.72725 2.50595 11.8877 -5.27952e-05 -1.11262e-05 -7.62865e-06 5.44915e-05
11 1 8.46417 1.69684 1.08188 -2.26394e-05 -5.33824e-06 -2.98617e-05 3.78518e-05
12 1 8.8779 2.72327 3.43094 3.26554e-05 8.58215e-06 -1.72047e-05 3.78949e-05
13 1 7.64495 1.82815 5.45579 2.75516e-05 -2.80302e-05 -8.14245e-05 9.04142e-05
14 1 8.14864 2.75719 7.76 1.39708e-05 3.97313e-05 6.93936e-06 4.26839e-05
15 1 6.91031 1.9086 9.7409 -5.6575e-06 7.44703e-05 5.00545e-05 8.99071e-05
16 1 0.769786 2.10993 11.8379 -1.33897e-05 6.81681e-05 -7.69829e-06 6.98959e-05
17 1 7.80012 10.5569 2.79851 4.60698e-05 -2.07749e-05 1.12478e-06 5.05499e-05
18 1 6.88431 8.34873 11.2824 -6.54237e-05 1.20575e-05 2.85255e-05 7.23833e-05
19 1 8.06585 9.11117 9.4758 4.48196e-05 6.21783e-05 -8.89208e-05 0.000117396
20 1 7.74116 8.28212 6.75773 3.45469e-05 3.14399e-05 -2.58934e-05 5.34081e-05
21 1 6.52469 5.30649 12.5734 -3.50279e-05 1.51771e-05 -3.57632e-06 3.83418e-05
22 1 5.28472 4.47518 1.75858 -2.70219e-05 -3.63704e-05 -1.77579e-05 4.86655e-05
23 1 5.67622 5.50543 4.09464 -2.38553e-05 -4.93077e-05 -5.14719e-05 7.51644e-05
24 1 4.47524 4.63239 6.03657 5.10469e-05 5.13478e-05 3.51656e-05 8.04922e-05
25 1 7.38873 5.14073 8.20329 2.3121e-06 2.36192e-06 3.56096e-06 4.85849e-06
26 1 6.17223 4.32472 10.1218 4.36166e-05 3.89177e-05 -4.3308e-05 7.27501e-05
27 1 7.37329 3.01765 11.9103 -1.00012e-05 6.09842e-05 -6.90369e-05 9.26563e-05
28 1 9.36911 5.87126 2.01804 1.57709e-05 -5.141e-06 -3.61891e-05 3.98096e-05
29 1 5.67663 7.58665 0.342765 -5.44457e-05 2.85012e-05 3.6906e-05 7.16848e-05
30 1 7.31665 7.3299 4.46176 1.08316e-05 -2.7611e-05 -2.84537e-05 4.11011e-05
31 1 6.11781 6.46656 6.40022 -2.0049e-05 1.24706e-05 9.52862e-06 2.54612e-05
32 1 8.99386 6.97431 8.60404 5.72882e-05 2.42234e-05 4.45379e-05 7.65005e-05
33 1 7.76476 6.12659 10.5779 -4.97214e-05 -4.54563e-06 -3.86186e-05 6.31211e-05
34 1 7.32942 9.44462 0.695799 1.41244e-05 1.94108e-05 8.18067e-05 8.52562e-05
35 1 6.09771 8.67467 2.60991 4.44278e-05 1.2083e-05 -1.22454e-05 4.76422e-05
36 1 8.94872 9.17675 4.75514 2.67536e-05 -4.50918e-05 -4.38325e-05 6.83397e-05
37 1 4.4563 6.78807 2.26027 -3.46104e-05 -2.38414e-05 -5.60055e-05 7.00208e-05
38 1 7.72254 4.04967 1.59244 1.13868e-05 4.4494e-06 -4.68009e-05 4.83712e-05
39 1 8.14476 5.03936 3.96348 2.44558e-07 -6.38262e-06 -3.78461e-05 3.83813e-05
40 1 6.9413 4.17427 5.9175 5.29378e-05 1.57421e-05 -5.26909e-05 7.63319e-05
41 1 8.55005 10.1775 11.6692 -1.4677e-06 2.69015e-05 3.13194e-05 4.13128e-05
42 1 10.4724 0.136177 11.6754 -2.56351e-05 7.41812e-05 8.17211e-06 7.89101e-05
43 1 10.8519 1.29884 0.923703 -1.25332e-05 -5.11408e-05 9.58971e-05 0.000109402
44 1 11.2819 2.27554 3.2471 -1.72143e-05 -4.03553e-06 3.7602e-05 4.15515e-05
45 1 10.0101 1.31804 5.1986 -3.94998e-05 7.99213e-06 4.80101e-05 6.26823e-05
46 1 10.5656 2.18747 7.66327 8.33503e-06 -8.47758e-06 1.51752e-05 1.92777e-05
47 1 9.32691 1.32985 9.62128 -1.04856e-06 -2.10145e-05 2.9389e-06 2.12449e-05
48 1 9.72607 10.9197 9.89069 -4.38913e-05 -6.48057e-05 -5.2127e-08 7.82702e-05
49 1 0.406692 5.40727 1.92843 2.46547e-06 -1.65517e-05 -1.15097e-05 2.03103e-05
50 1 10.5711 4.54453 3.86216 2.52486e-05 3.34829e-06 3.47132e-05 4.30547e-05
51 1 9.36487 3.63656 5.79887 7.29738e-06 1.40483e-05 -4.78272e-05 5.0379e-05
52 1 10.9865 3.31389 9.94004 3.5684e-05 -2.76922e-06 4.20043e-05 5.51849e-05
53 1 10.6209 6.66407 0.0716981 -2.51832e-05 1.13282e-05 2.82853e-05 3.95295e-05
54 1 11.0241 7.71973 2.4296 2.80018e-05 -1.53011e-05 -5.7599e-06 3.24253e-05
55 1 0.0106531 8.81505 4.72048 1.97827e-05 -4.92412e-05 -1.59702e-05 5.54175e-05
56 1 0.480201 7.46858 10.9313 -1.50488e-05 4.90236e-05 -1.19661e-05 5.2659e-05
57 1 10.1167 3.59153 1.44584 4.5355e-06 -3.78032e-06 -7.43307e-06 9.49274e-06
58 1 5.62602 1.08838 11.7241 -2.67075e-05 -2.01851e-05 -5.49128e-05 6.43128e-05
59 1 9.19276 9.91596 7.72989 -0.000128946 -1.01382e-05 0.000156767 0.000203238
60 1 10.1679 10.0145 2.70321 4.92916e-05 -2.34696e-05 -6.60438e-06 5.49918e-05
61 1 9.80662 4.6223 8.08481 7.39874e-05 4.33712e-05 1.28005e-05 8.67125e-05
62 1 8.59047 3.79104 10.007 -6.93266e-05 9.01548e-06 3.88209e-05 7.99657e-05
63 1 8.95758 4.84955 12.4092 4.17356e-05 1.93706e-05 -4.9818e-05 6.78153e-05
64 1 8.14246 7.10939 0.20835 1.29928e-06 2.62144e-05 5.77583e-05 6.34421e-05
65 1 6.89822 6.32418 2.14809 -2.59465e-05 -6.42037e-06 -6.61474e-06 2.75353e-05
66 1 9.79486 6.87842 4.35073 1.66461e-05 -9.06208e-05 2.6369e-06 9.21747e-05
67 1 8.59161 5.99365 6.27253 2.27025e-05 -5.72826e-05 -2.9984e-05 6.85255e-05
68 1 10.2131 10.7602 5.99152 0.000117202 -8.8653e-05 -6.99045e-05 0.000162734
69 1 0.0414777 6.48815 8.47938 -2.35292e-05 2.5113e-05 5.62052e-05 6.59038e-05
70 1 9.77926 8.92461 0.592463 -1.89863e-05 -4.64764e-05 2.90212e-05 5.79893e-05
71 1 8.53194 8.14911 2.52214 -6.22392e-06 -8.24004e-05 -4.26977e-05 9.30143e-05
72 1 0.459762 9.57923 7.19397 2.43155e-05 -3.63947e-05 5.09971e-05 6.72051e-05
73 1 10.201 7.86979 6.65134 3.27009e-06 5.2752e-05 -1.54047e-06 5.28757e-05
74 1 10.6523 8.69305 9.16732 -2.39641e-05 -4.56767e-05 1.77213e-05 5.45406e-05
75 1 9.40101 7.88298 11.096 1.82593e-05 6.13636e-05 -2.68484e-05 6.94243e-05
76 1 0.093377 10.8642 0.719899 -1.28453e-05 0.000113801 1.22807e-05 0.000115181
77 1 10.2026 5.65063 10.4323 2.03218e-05 6.32118e-05 -1.29184e-05 6.76431e-05
78 1 4.51784 2.47832 9.83563 9.47047e-05 3.27867e-05 -4.03955e-06 0.000100301
79 1 5.74634 3.31898 7.88176 3.71841e-05 -3.63184e-05 1.05239e-05 5.30324e-05
80 1 5.29604 2.3449 5.64723 3.63576e-05 -8.96172e-06 -9.01539e-06 3.85158e-05
81 1 2.4753 8.29721 4.61209 -3.11179e-05 1.59586e-05 2.43057e-05 4.25884e-05
82 1 11.0179 5.49478 6.16138 5.27074e-05 -1.00359e-05 -1.70075e-05 5.62854e-05
83 1 4.13214 7.9062 8.83114 9.87065e-06 7.61742e-06 -1.48661e-05 1.94024e-05
84 1 2.9005 7.0497 10.8174 -1.82252e-05 -2.41084e-05 -1.30883e-05 3.29344e-05
85 1 2.53181 10.4832 0.735781 -1.18961e-05 3.50034e-05 5.38973e-06 3.73604e-05
86 1 1.24475 9.68365 2.75764 4.65729e-05 3.94812e-05 4.52671e-05 7.6006e-05
87 1 4.15431 10.284 4.96394 2.26003e-05 1.88693e-05 1.66998e-05 3.38483e-05
88 1 0.875645 8.52565 0.496461 -8.32181e-06 3.1025e-06 -9.85046e-06 1.32631e-05
89 1 1.26334 7.37697 6.54542 9.6585e-06 -3.52325e-05 2.26443e-05 4.29812e-05
90 1 2.13393 9.34345 11.3544 -4.52626e-05 7.09753e-05 2.66873e-05 8.83086e-05
91 1 1.73828 10.5427 5.17978 -8.52418e-05 2.64446e-05 9.464e-06 8.97499e-05
92 1 2.92646 0.184774 6.2385 0.000124702 2.47149e-05 -0.00024712 0.000277902
93 1 1.87767 11.3303 7.91402 -9.01224e-05 -5.02328e-05 0.000227391 0.000249704
94 1 0.792059 10.5032 9.70252 3.69544e-05 4.47866e-05 -3.09228e-05 6.57851e-05
95 1 2.9692 11.4645 2.94121 9.23367e-05 -8.86518e-05 3.73507e-05 0.000133343
96 1 3.96671 0.815152 4.44192 -5.07272e-05 -3.69746e-05 0.00026594 0.000273248
97 1 3.3912 10.2047 9.37921 -2.84233e-05 3.98345e-05 -2.48343e-06 4.89983e-05
98 1 4.11306 1.48641 7.70951 5.06476e-06 4.57663e-05 8.87844e-06 4.68938e-05
99 1 2.41808 3.97756 12.1792 -5.48618e-05 -3.93566e-05 -5.3948e-06 6.77338e-05
100 1 2.46677 6.05848 8.417 5.35977e-05 -2.43549e-05 4.33758e-05 7.31255e-05
101 1 1.7217 8.34435 8.95451 2.95644e-05 2.36055e-05 8.04903e-07 3.78408e-05
102 1 2.94507 9.28399 6.97091 -2.62134e-05 2.52607e-05 -3.33021e-05 4.93383e-05
103 1 11.2291 11.4266 4.19744 -0.00010899 2.58216e-06 0.000115386 0.000158744
104 1 0.452641 0.412197 6.3459 1.77026e-05 6.60276e-05 -8.74029e-05 0.000110961
105 1 0.81857 0.146595 2.42363 9.36809e-05 8.33409e-06 -0.000214672 0.000234371
106 1 1.5097 1.07703 4.52459 -1.35683e-05 -9.50567e-05 0.000269829 0.000286405
107 1 1.66553 1.85398 7.75364 -1.81056e-06 -3.22167e-06 -5.1846e-05 5.19775e-05
108 1 1.22898 5.21025 10.3438 4.17275e-05 -6.00854e-06 1.48532e-05 4.46979e-05
109 1 1.45881 11.7476 11.596 -5.4897e-05 -2.41556e-05 -6.54619e-05 8.87831e-05
110 1 1.59529 4.02359 3.80444 -4.93089e-06 -5.57232e-05 3.73345e-05 6.72552e-05
111 1 0.389475 3.05392 5.71786 9.16211e-06 -5.00903e-05 -1.90973e-05 5.43846e-05
112 1 0.814674 4.1548 8.00809 4.30948e-05 2.22472e-05 3.38358e-05 5.91351e-05
113 1 0.409489 0.992082 9.73074 1.29373e-05 3.20308e-05 -2.09299e-05 4.03907e-05
114 1 2.03168 0.889391 0.69344 -5.92485e-05 6.40629e-06 1.4362e-05 6.13e-05
115 1 1.65548 6.22581 12.7921 4.33289e-06 2.75714e-05 1.19627e-05 3.03655e-05
116 1 0.822676 6.41513 4.24876 7.40498e-06 -5.285e-05 1.41694e-05 5.52153e-05
117 1 1.13873 3.15611 1.29089 -8.50411e-05 -6.27866e-06 1.12246e-05 8.60081e-05
118 1 10.8124 11.7363 8.13573 -8.51502e-05 -6.4134e-05 1.05074e-05 0.000107117
119 1 2.80313 0.53782 9.63856 -3.01521e-05 -5.08336e-05 -6.53449e-05 8.81088e-05
120 1 2.57263 1.97901 2.79059 0.000111569 1.01529e-05 -0.000125051 0.000167894
121 1 6.55749 9.6932 4.81628 2.54102e-05 -4.62479e-05 2.52101e-05 5.84816e-05
122 1 5.34614 8.80124 6.83075 -3.75337e-05 5.79704e-06 -4.21399e-05 5.67288e-05
123 1 5.79367 9.75946 9.14674 1.06938e-05 1.79939e-05 -1.29058e-05 2.45906e-05
124 1 4.5497 8.91465 11.187 -2.29015e-05 5.07666e-06 2.0737e-05 3.13093e-05
125 1 5.40565 11.1416 2.93899 8.92322e-05 -6.21202e-05 3.64741e-05 0.000114681
126 1 5.95509 12.0401 5.2955 1.62897e-06 -6.45022e-06 -3.67729e-05 3.73698e-05
127 1 4.64726 11.1204 7.36409 2.73573e-05 3.38215e-05 -8.57448e-05 9.61482e-05
128 1 3.70905 9.16232 2.65411 -3.67675e-05 -2.0428e-06 -4.24785e-05 5.62179e-05
129 1 5.16451 0.0410931 9.55053 2.47519e-05 5.97367e-06 1.63442e-05 3.02568e-05
130 1 6.71506 11.9025 0.876444 -1.13814e-05 -2.63295e-05 2.40507e-05 3.74328e-05
131 1 7.20381 0.854283 3.15085 -3.40712e-05 5.47499e-06 2.94797e-05 4.53859e-05
132 1 6.42523 0.920059 7.51483 -1.46619e-05 2.26651e-05 -9.40195e-06 2.85845e-05
133 1 4.31103 0.254884 0.900383 -2.02777e-05 9.40437e-06 -3.42612e-05 4.09079e-05
134 1 6.17572 2.28659 0.931865 -5.21037e-05 1.45892e-05 3.4963e-05 6.44209e-05
135 1 5.01729 1.60369 2.70652 4.67281e-05 -2.5288e-05 -0.000112153 0.000124102
136 1 6.50878 3.22591 3.61589 4.26818e-05 1.65226e-05 -7.73968e-05 8.99167e-05
137 1 3.85448 11.2951 11.5548 2.31814e-05 3.16798e-05 -2.88004e-05 4.86872e-05
138 1 3.72256 2.77175 0.996817 -5.93545e-05 -0.000124662 0.000100408 0.00017072
139 1 4.96872 9.98957 0.658526 -3.99761e-05 -4.468e-05 -5.27582e-05 7.98612e-05
140 1 6.53036 7.41117 8.74065 1.28693e-05 5.54914e-05 -5.21651e-05 7.72406e-05
141 1 4.06002 3.62907 3.75924 -3.87772e-05 -4.26073e-05 -5.98605e-05 8.30803e-05
142 1 2.8496 2.71612 5.72603 5.01368e-05 -3.87043e-05 -1.5598e-05 6.52305e-05
143 1 3.27364 3.77458 7.97408 9.29661e-05 4.8331e-05 1.87048e-05 0.000106435
144 1 2.05032 2.92606 9.9162 1.60012e-06 2.79992e-05 4.03293e-05 4.9122e-05
145 1 3.26276 1.65181 11.6951 3.03157e-06 3.73896e-05 2.93143e-05 4.76078e-05
146 1 4.07384 5.75301 12.7129 -6.61718e-05 3.18605e-05 -5.65801e-07 7.34446e-05
147 1 2.83081 4.91172 1.86419 4.95326e-06 -6.84517e-06 4.75698e-05 4.83144e-05
148 1 5.30981 6.57456 10.7278 -2.16538e-05 3.55997e-05 6.09592e-06 4.21116e-05
149 1 3.23487 5.94424 4.18457 -2.77385e-05 -4.21074e-05 2.30687e-05 5.54492e-05
150 1 4.91392 5.6104 8.33692 1.06804e-05 -2.9524e-05 -5.99442e-06 3.19636e-05
151 1 3.683 4.78555 10.2633 1.6071e-05 5.12636e-05 -9.55856e-06 5.45674e-05
152 1 4.94328 3.54583 12.0003 -2.71367e-05 -1.56841e-05 4.05044e-05 5.12153e-05
153 1 3.30198 8.09923 0.361133 1.25849e-05 -7.71918e-06 3.97996e-05 4.24497e-05
154 1 2.05556 7.28075 2.31964 -1.88809e-05 -1.26008e-05 -9.59081e-06 2.46425e-05
155 1 4.87968 7.84446 4.55501 -5.098e-05 3.2148e-05 6.10866e-05 8.58139e-05
156 1 3.68126 6.94301 6.49056 -9.2653e-06 -2.61174e-06 -2.71722e-05 2.8827e-05
157 1 2.02836 5.03502 6.09443 3.22368e-07 2.1853e-05 -4.5399e-07 2.18601e-05
158 1 11.0213 9.6931 11.5321 2.43085e-06 2.97366e-05 7.54978e-05 8.11793e-05
