ITEM: TIMESTEP
0
ITEM: NUMBER OF ATOMS
158
ITEM: BOX BOUNDS pp pp pp
0.0000000000000000e+00 1.1400361000000000e+01
0.0000000000000000e+00 1.2098903999999999e+01
0.0000000000000000e+00 1.2816801000000000e+01
ITEM: ATOMS id type x y z fx fy fz v_fmag
1 1 1.6147 1.73102 12.149 3.02316e-06 2.00122e-05 1.98806e-05 2.83701e-05
2 1 7.27956 6.97035 8.60048 -5.40062e-05 -6.84869e-05 2.9739e-06 8.72695e-05
3 1 6.06763 6.13988 10.6521 9.53409e-06 1.84713e-05 -1.49438e-05 2.56009e-05
4 1 9.9196 10.9092 0.573182 -5.47937e-06 -5.83766e-05 4.25289e-05 7.24331e-05
5 1 9.07608 10.7037 4.24709 -6.15754e-05 9.33925e-06 -0.000103268 0.000120595
6 1 10.0821 9.24391 5.86423 -4.78242e-05 -2.18964e-05 -4.16527e-05 6.70937e-05
7 1 6.12103 8.29412 6.76175 -6.07646e-06 -2.76753e-05 8.87979e-06 2.96933e-05
8 1 7.69983 7.97343 10.848 -1.06248e-05 -5.11113e-05 -6.98706e-05 8.7219e-05
9 1 6.49507 7.12819 0.137836 -1.7832e-05 -8.44596e-05 -1.2661e-05 8.72451e-05
10 1 7.96396 0.322288 3.05306 6.25212e-06 2.53981e-05 -2.59169e-05 3.68217e-05
11 1 7.45093 9.04947 4.74714 2.37829e-05 -2.42262e-05 -4.3157e-05 5.49096e-05
12 1 7.83584 9.9837 7.09342 -9.28488e-05 1.50299e-05 -7.74714e-06 9.43759e-05
13 1 6.57069 9.32659 9.07568 -5.96073e-05 3.19103e-05 -4.46154e-05 8.10051e-05
14 1 9.44084 9.82148 11.1378 -5.06749e-06 -3.51766e-05 -4.08372e-05 5.41363e-05
15 1 8.34986 11.1031 9.32871 -6.794e-05 -1.26088e-05 -2.76612e-05 7.4431e-05
16 1 11.3468 12.0275 11.9207 2.30116e-05 3.18507e-05 2.48657e-06 3.93724e-05
17 1 6.87041 5.95547 6.29634 2.35404e-05 1.14713e-06 -9.73558e-06 2.55e-05
18 1 9.76743 8.3611 3.85044 4.02252e-05 7.18876e-05 5.62631e-05 9.97569e-05
19 1 6.96569 8.08672 2.43479 1.47936e-05 2.62257e-05 3.34115e-05 4.49774e-05
20 1 8.13111 8.95867 0.176334 5.21421e-05 1.80323e-05 9.02549e-05 0.000105782
21 1 7.27761 0.41848 7.45488 -1.09783e-06 1.56742e-05 -2.57889e-05 3.01986e-05
22 1 6.37924 0.635424 11.7393 -4.12542e-05 3.51798e-06 -3.67192e-05 5.53406e-05
23 1 6.79677 1.63358 1.23704 7.97504e-06 1.80381e-05 -2.39653e-06 1.98675e-05
24 1 5.57655 0.755122 3.29158 -1.94012e-05 1.28106e-05 -4.45703e-05 5.02696e-05
25 1 7.21432 2.63331 3.55332 1.42417e-05 3.61878e-05 -4.60194e-05 6.02509e-05
26 1 6.00307 1.75218 5.58211 -3.53935e-05 2.12381e-05 -2.19969e-05 4.6772e-05
27 1 6.44326 2.76084 7.882 -3.38066e-06 4.35081e-05 2.22739e-05 4.8995e-05
28 1 9.24081 11.5734 6.23227 9.07339e-05 6.5509e-05 0.00022229 0.000248871
29 1 5.23077 1.94527 9.89348 -1.24696e-05 2.90015e-05 1.55596e-06 3.1607e-05
30 1 7.69293 5.72534 1.9551 -2.87393e-06 5.74387e-05 -1.6294e-05 5.97743e-05
31 1 6.03382 3.957 1.69335 2.88054e-05 -5.90205e-05 -1.30045e-05 6.69499e-05
32 1 6.46455 4.94973 3.99289 2.06561e-05 7.62315e-06 -6.48255e-06 2.29524e-05
33 1 5.24705 4.12078 6.0289 4.23146e-05 -7.60065e-06 -4.77256e-05 6.42342e-05
34 1 8.04914 4.66816 8.21947 -7.49706e-05 -4.52105e-06 3.83326e-05 8.43233e-05
35 1 6.8502 3.75559 10.188 -4.13532e-05 5.88146e-06 -5.3772e-05 6.80889e-05
36 1 7.25374 4.74795 12.4846 7.90098e-06 -3.59425e-06 4.50839e-05 4.59119e-05
37 1 8.08901 2.43852 12.0702 5.78931e-05 1.26023e-06 -3.31165e-05 6.67076e-05
38 1 9.82385 0.394093 8.12545 -8.7936e-05 -9.35765e-05 -3.70382e-06 0.000128464
39 1 8.80653 0.0878905 11.6145 4.29963e-05 -6.67265e-06 -5.15012e-05 6.74209e-05
40 1 9.25013 1.12671 1.13169 -2.8364e-05 -1.87112e-06 -6.21645e-05 6.83553e-05
41 1 0.0915095 10.0743 3.96965 -4.73905e-05 -0.000142321 -0.000318287 0.000351863
42 1 8.53834 7.68322 6.61066 -1.47727e-05 -7.82287e-05 -9.26354e-07 7.96167e-05
43 1 10.128 7.47596 10.7347 -6.08924e-05 2.23902e-05 -3.25101e-05 7.2568e-05
44 1 8.85487 6.58273 12.5996 1.59056e-06 3.79417e-05 1.44095e-05 4.0617e-05
45 1 0.366347 0.869237 1.25629 7.55151e-05 3.54507e-06 1.67637e-05 7.74346e-05
46 1 10.475 11.9815 2.92435 4.91255e-05 -7.63036e-05 -8.4169e-05 0.000123774
47 1 10.4364 10.1732 7.85605 2.53109e-05 3.61314e-05 -3.16336e-05 5.42845e-05
48 1 9.30109 7.49923 1.83552 -1.32376e-05 -3.29258e-05 -1.21121e-05 3.74973e-05
49 1 8.97469 8.72373 8.91612 -2.97019e-05 -5.10371e-05 9.08896e-06 5.97461e-05
50 1 10.8647 1.07167 5.50316 2.06879e-05 -0.000129285 -3.88742e-05 0.000136579
51 1 0.0095143 2.09631 7.90038 -3.2268e-06 4.45659e-05 -8.31092e-05 9.43593e-05
52 1 10.2104 1.30336 10.1333 -3.12202e-05 8.19251e-05 0.000203448 0.000221535
53 1 10.9563 3.10218 1.67572 2.27097e-05 8.1563e-05 3.03318e-05 8.99348e-05
54 1 10.1303 3.27448 5.9031 4.01338e-05 -4.64669e-05 -4.23893e-05 7.46106e-05
55 1 10.1509 5.31638 2.12001 2.29138e-05 1.11393e-05 5.73712e-05 6.27741e-05
56 1 10.9593 5.26715 10.6599 3.72893e-06 5.0025e-06 -1.63283e-06 6.44951e-06
57 1 10.918 11.0927 9.85651 -1.07976e-05 -9.59255e-06 8.2186e-05 8.34455e-05
58 1 6.83416 11.4906 5.17383 -1.13224e-05 1.53559e-05 -2.46509e-05 3.11716e-05
59 1 10.5292 8.44375 12.7855 -1.06986e-05 -4.90328e-05 -0.000116015 0.000126404
60 1 9.73004 6.4715 8.59476 -7.52513e-05 0.000102845 0.000100515 0.000162305
61 1 9.69322 2.14475 3.4943 2.2446e-05 3.41369e-05 -2.89857e-05 5.00932e-05
62 1 11.3898 4.0432 3.98513 1.50343e-05 -1.15045e-05 -1.16692e-05 2.22386e-05
63 1 8.38838 1.4504 5.39188 2.91745e-05 -3.83181e-05 -5.39304e-05 7.23043e-05
64 1 8.8624 2.4668 7.78392 -8.76399e-06 1.20278e-05 -4.85412e-05 5.07713e-05
65 1 7.72001 1.42755 9.73399 2.66501e-05 1.69052e-05 -1.88162e-05 3.67432e-05
66 1 10.5671 2.19917 12.2542 -6.56884e-07 -4.56567e-05 -2.7582e-05 5.33454e-05
67 1 9.70722 4.38016 12.5548 -3.65478e-05 3.7307e-05 -3.00593e-05 6.02587e-05
68 1 8.44395 5.63796 10.4611 -4.42122e-06 1.10263e-05 1.94893e-05 2.28245e-05
69 1 8.48667 3.43043 1.6098 4.46908e-05 -5.86237e-06 -1.61712e-05 4.78868e-05
70 1 7.63361 3.67139 5.90435 -3.58166e-05 4.57255e-06 3.96488e-06 3.63243e-05
71 1 10.5633 4.27881 8.28552 3.18536e-05 -8.85782e-05 -5.70201e-05 0.000110055
72 1 9.28967 3.44324 10.1752 8.04763e-07 -2.49882e-06 -2.06102e-05 2.07767e-05
73 1 11.3536 6.24362 0.201031 2.53928e-05 -2.37314e-05 -3.2578e-05 4.76372e-05
74 1 8.14191 6.69813 4.2638 3.27558e-05 5.8256e-06 3.52755e-05 4.84897e-05
75 1 10.6161 6.2715 4.50512 8.01336e-06 -1.97791e-05 0.000121672 0.00012353
76 1 9.32837 5.46667 6.3269 2.53424e-05 5.83858e-05 -3.81314e-05 7.41967e-05
77 1 8.90989 4.41501 3.97101 7.04525e-05 -3.21622e-05 -5.23165e-06 7.76231e-05
78 1 7.48669 11.407 0.749708 -1.38625e-05 4.49045e-05 2.90776e-05 5.52638e-05
79 1 5.95148 11.7115 9.45628 -3.95683e-05 2.92373e-05 -6.57116e-06 4.96352e-05
80 1 7.03631 10.3756 11.3135 -5.10158e-05 1.67058e-05 -1.80218e-05 5.66258e-05
81 1 2.85162 6.84335 2.36845 2.68826e-06 7.13133e-06 2.66164e-05 2.7686e-05
82 1 1.67014 5.90412 4.37121 -2.49456e-05 -2.50434e-05 4.95246e-05 6.08452e-05
83 1 3.27355 5.66285 8.55461 -3.75857e-06 -1.63276e-05 2.32645e-05 2.86698e-05
84 1 0.421297 3.07252 10.2369 -5.62695e-05 5.67816e-06 -4.75397e-05 7.38818e-05
85 1 0.806629 4.01637 12.5579 2.59663e-06 7.60788e-05 2.25837e-05 7.94025e-05
86 1 1.59119 8.20426 0.536132 2.53052e-05 -3.42189e-05 3.03822e-05 5.22911e-05
87 1 0.397717 7.20374 2.56016 3.78038e-05 1.47039e-05 -1.3559e-05 4.2769e-05
88 1 1.21826 4.9598 2.05009 2.34278e-05 -1.16825e-05 -8.69473e-07 2.61935e-05
89 1 3.30491 7.83401 4.66028 2.91957e-05 2.33055e-05 -3.61397e-06 3.75312e-05
90 1 2.51618 7.9968 9.01998 -2.04365e-05 -3.89965e-05 1.93947e-05 4.81096e-05
91 1 0.820687 6.15889 8.74034 6.92737e-06 1.35623e-05 4.42149e-05 4.67641e-05
92 1 3.40901 10.0215 0.765466 -9.77246e-06 -3.19774e-05 1.00936e-05 3.49276e-05
93 1 2.07655 9.17135 2.78767 -6.58825e-06 1.33354e-05 -7.07775e-06 1.64722e-05
94 1 2.51192 10.18 5.06061 1.99931e-05 -3.3937e-05 -4.92445e-05 6.30592e-05
95 1 1.32822 9.29231 7.16138 3.58596e-05 -3.14784e-05 -2.76773e-05 5.51619e-05
96 1 2.95344 9.01973 11.3123 3.46351e-05 6.33594e-05 2.94465e-05 7.79814e-05
97 1 2.09924 6.94651 6.72595 -6.57079e-05 -5.72519e-06 6.65973e-05 9.3731e-05
98 1 1.19943 7.19819 11.0617 -4.09891e-05 -5.42414e-05 3.24039e-05 7.53144e-05
99 1 2.42409 5.87412 0.0696509 -3.29298e-05 3.75275e-05 9.06282e-05 0.000103471
100 1 1.64439 3.87118 8.24402 -3.21994e-05 -8.24503e-06 -7.07734e-05 7.81899e-05
101 1 0.424886 5.10519 6.36493 -4.16281e-06 1.55678e-05 1.43265e-05 2.15624e-05
102 1 0.88031 8.12916 4.91684 -4.12907e-05 4.23885e-05 2.44844e-05 6.40405e-05
103 1 0.60016 9.61361 11.42 -4.60743e-05 -4.23601e-05 3.77945e-05 7.3114e-05
104 1 0.12593 8.5258 9.1719 -3.94753e-05 -5.062e-05 3.59411e-05 7.35693e-05
105 1 0.269157 11.0323 5.91937 4.3355e-05 0.000128797 0.000342123 0.000368126
106 1 2.31713 11.4201 11.6709 1.72705e-05 1.80361e-05 1.41152e-06 2.50113e-05
107 1 0.809573 11.9138 7.89213 -2.16326e-05 -5.51296e-05 -8.85485e-05 0.000106527
108 1 3.23138 3.5287 12.4193 3.13573e-05 -5.97381e-06 -5.55354e-05 6.40558e-05
109 1 2.7693 0.326938 1.13457 -6.16711e-05 6.85929e-05 1.14275e-05 9.29456e-05
110 1 2.4323 1.54663 7.80108 -4.21915e-05 2.85656e-06 3.24312e-05 5.32922e-05
111 1 1.21602 0.779712 9.96218 -3.69474e-06 -4.95308e-06 -2.82831e-05 2.89503e-05
112 1 2.0071 2.66553 1.62017 1.5834e-05 1.21253e-05 -3.89055e-05 4.37192e-05
113 1 0.750995 1.77655 3.57211 1.54968e-05 -1.27411e-05 -2.44261e-05 3.16089e-05
114 1 2.42837 3.61534 3.91064 5.95793e-06 -2.00829e-05 -1.09798e-05 2.36511e-05
115 1 1.19914 2.82166 5.89789 1.41765e-05 -3.07895e-06 -1.04238e-05 1.78636e-05
116 1 2.85851 4.62894 6.22556 4.40394e-05 -1.80665e-05 1.25842e-05 4.92365e-05
117 1 1.95722 0.521752 5.49149 -2.07832e-05 4.20594e-05 -1.36482e-06 4.69339e-05
118 1 11.0656 7.38177 6.89225 -3.98844e-05 3.55112e-05 -5.56089e-05 7.70984e-05
119 1 1.07733 10.6575 0.844333 -1.13383e-05 9.18144e-06 2.8228e-05 3.17754e-05
120 1 3.05726 11.1993 7.32532 -2.3617e-05 7.43654e-06 3.48805e-05 4.27751e-05
121 1 5.8091 9.51364 0.607958 9.78885e-06 2.79981e-06 7.07711e-05 7.14997e-05
122 1 4.08271 7.68349 0.348402 -2.22257e-06 2.75277e-05 3.32036e-05 4.31879e-05
123 1 5.72099 7.30405 4.46401 5.03476e-05 -6.41225e-05 1.22395e-05 8.24401e-05
124 1 4.48367 6.47709 6.5038 2.83625e-05 3.30512e-05 -1.80152e-05 4.71314e-05
125 1 4.90396 7.49906 8.8173 -1.93024e-05 1.79915e-06 7.17568e-05 7.43294e-05
126 1 2.03898 4.88058 10.5786 -3.25402e-05 -2.73204e-06 -4.63574e-06 3.29821e-05
127 1 8.56708 9.87067 2.25189 2.2912e-05 8.65113e-06 9.85478e-05 0.000101545
128 1 4.45946 4.3292 10.3833 -3.3646e-05 -6.69711e-05 -4.29784e-05 8.63963e-05
129 1 4.55133 8.66628 2.63251 1.57369e-05 2.44049e-05 1.54503e-05 3.28932e-05
130 1 3.73889 8.84706 6.94718 2.06546e-06 -3.44741e-05 1.939e-05 3.96069e-05
131 1 5.34237 8.51187 11.131 -4.73798e-05 -7.92978e-06 2.59377e-05 5.45939e-05
132 1 3.66856 6.68479 10.8637 1.22343e-05 -6.86627e-06 8.85039e-05 8.9609e-05
133 1 6.30957 10.4982 2.9015 4.73155e-05 -6.62993e-05 1.40679e-05 8.26575e-05
134 1 3.88563 11.0006 3.03864 -1.94063e-05 -4.59441e-06 -3.42647e-05 3.96457e-05
135 1 5.48569 10.6874 7.18466 -6.67983e-06 -4.53938e-06 -6.70308e-06 1.04956e-05
136 1 4.21267 9.86488 9.23727 -1.06574e-05 2.51775e-05 -1.12243e-05 2.95545e-05
137 1 5.01844 9.66995 4.915 2.60903e-05 -4.49283e-05 6.46335e-05 8.29261e-05
138 1 1.56074 11.6446 3.12818 -1.73726e-05 -1.61987e-05 2.8348e-05 3.6984e-05
139 1 5.66444 5.135 8.34018 -1.417e-05 1.57249e-05 6.31658e-05 6.66181e-05
140 1 5.27757 6.31256 2.16978 4.4065e-05 1.42583e-06 -1.71146e-05 4.72934e-05
141 1 1.84805 10.3625 9.42538 4.74361e-06 2.94174e-05 1.98493e-05 3.58034e-05
142 1 4.6735 10.8779 11.5246 -4.7763e-05 4.73564e-05 -5.80022e-05 8.88155e-05
143 1 3.54104 0.130878 9.61777 -9.90133e-06 -1.30652e-05 -1.59316e-05 2.28594e-05
144 1 5.12347 11.8734 0.998501 0.000100907 3.01248e-05 -4.31317e-05 0.000113798
145 1 4.34031 12.0016 5.30871 1.34344e-05 2.69557e-06 -2.51862e-05 2.86722e-05
146 1 4.80184 0.925667 7.5957 -4.53479e-05 1.79504e-05 -3.31156e-05 5.89516e-05
147 1 3.98217 1.14825 11.9235 1.87382e-05 -3.64299e-05 -8.74879e-05 9.66043e-05
148 1 4.06997 5.47901 4.20029 7.99061e-05 -3.39969e-06 -8.3783e-06 8.0416e-05
149 1 4.40176 2.14117 1.42543 5.46152e-05 2.22973e-05 1.58698e-05 6.10888e-05
150 1 4.8268 3.12584 3.72833 3.50256e-05 -2.09992e-05 -3.91618e-05 5.6581e-05
151 1 3.6246 2.29248 5.75825 -3.96039e-06 -7.32353e-06 -1.59324e-05 1.79766e-05
152 1 4.06137 3.31759 8.0682 -2.40037e-05 4.17778e-05 -7.21176e-07 4.8188e-05
153 1 2.847 2.54551 10.1049 1.76026e-06 4.02425e-05 -2.59489e-05 4.79155e-05
154 1 5.62381 2.95887 12.2065 -3.23569e-05 4.22604e-06 -2.30686e-05 3.99623e-05
155 1 4.85071 5.33042 12.6892 2.21563e-05 -2.46913e-05 2.63467e-05 4.2364e-05
156 1 3.63461 4.50091 1.90335 5.1303e-05 1.25299e-05 -3.69079e-05 6.44297e-05
157 1 3.20009 1.30057 3.45753 2.35829e-05 1.67966e-05 9.07891e-07 2.89673e-05
158 1 10.9665 9.33187 1.975 0.000117505 3.09582e-05 0.00019031 0.000225796
