108
Lattice="10.9874859878472 0.0 0.0 0.0 10.9874859878472 0.0 0.0 0.0 10.9874859878472" Properties=species:S:1:pos:R:3:forces:R:3 virial="-25.407239329247815 -1.3922266907855088e-14 -5.033301834181657e-15 -1.3922266907855088e-14 -25.407239329247815 -2.8605091965023325e-14 -5.033301834181657e-15 -2.8605091965023325e-14 -25.407239329247894" label=1 energy=-402.312967586508 stress="0.019154131992077786 1.0495785650942965e-17 3.794529836104663e-18 1.0495785650942965e-17 0.019154131992077786 2.1564944543693612e-17 3.794529836104663e-18 2.1564944543693612e-17 0.019154131992077845" free_energy=-402.312967586508 pbc="T T T"
Cu   0.00963048   0.00963048   0.00963048  -0.00000000  -0.00000000  -0.00000000
Cu   0.00963048   0.00963048   3.67213000  -0.00000000  -0.00000000  -0.00000000
Cu   0.00963048   3.67213000   0.00963048  -0.00000000  -0.00000000  -0.00000000
Cu   0.00963048   3.67213000   3.67213000  -0.00000000  -0.00000000  -0.00000000
Cu   3.67213000   0.00963048   0.00963048  -0.00000000  -0.00000000  -0.00000000
Cu   3.67213000   0.00963048   3.67213000  -0.00000000  -0.00000000  -0.00000000
Cu   3.67213000   3.67213000   0.00963048  -0.00000000  -0.00000000  -0.00000000
Cu   3.67213000   3.67213000   3.67213000  -0.00000000  -0.00000000  -0.00000000
Cu   0.00963048   1.84088000   1.84088000  -0.00000000  -0.00000000  -0.00000000
Cu   3.67213000   1.84088000   1.84088000  -0.00000000  -0.00000000  -0.00000000
Cu   1.84088000   0.00963048   1.84088000  -0.00000000  -0.00000000  -0.00000000
Cu   1.84088000   3.67213000   1.84088000  -0.00000000  -0.00000000  -0.00000000
Cu   1.84088000   1.84088000   0.00963048  -0.00000000  -0.00000000  -0.00000000
Cu   1.84088000   1.84088000   3.67213000  -0.00000000  -0.00000000  -0.00000000
Cu   7.33462000   0.00963048   0.00963048   0.00000000  -0.00000000  -0.00000000
Cu   7.33462000   0.00963048   3.67213000   0.00000000  -0.00000000  -0.00000000
Cu   7.33462000   3.67213000   0.00963048   0.00000000  -0.00000000  -0.00000000
Cu   7.33462000   3.67213000   3.67213000   0.00000000  -0.00000000  -0.00000000
Cu   7.33462000   1.84088000   1.84088000   0.00000000  -0.00000000  -0.00000000
Cu   5.50337000   0.00963048   1.84088000   0.00000000  -0.00000000  -0.00000000
Cu   5.50337000   3.67213000   1.84088000   0.00000000  -0.00000000  -0.00000000
Cu   9.16587000   0.00963048   1.84088000   0.00000000  -0.00000000  -0.00000000
Cu   9.16587000   3.67213000   1.84088000   0.00000000  -0.00000000  -0.00000000
Cu   5.50337000   1.84088000   0.00963048   0.00000000  -0.00000000  -0.00000000
Cu   5.50337000   1.84088000   3.67213000   0.00000000  -0.00000000  -0.00000000
Cu   9.16587000   1.84088000   0.00963048   0.00000000  -0.00000000  -0.00000000
Cu   9.16587000   1.84088000   3.67213000   0.00000000  -0.00000000  -0.00000000
Cu   0.00963048   7.33462000   0.00963048  -0.00000000   0.00000000  -0.00000000
Cu   0.00963048   7.33462000   3.67213000  -0.00000000   0.00000000  -0.00000000
Cu   3.67213000   7.33462000   0.00963048  -0.00000000   0.00000000  -0.00000000
Cu   3.67213000   7.33462000   3.67213000  -0.00000000   0.00000000  -0.00000000
Cu   0.00963048   5.50337000   1.84088000  -0.00000000   0.00000000  -0.00000000
Cu   0.00963048   9.16587000   1.84088000  -0.00000000   0.00000000  -0.00000000
Cu   3.67213000   5.50337000   1.84088000  -0.00000000   0.00000000  -0.00000000
Cu   3.67213000   9.16587000   1.84088000  -0.00000000   0.00000000  -0.00000000
Cu   1.84088000   7.33462000   1.84088000  -0.00000000   0.00000000  -0.00000000
Cu   1.84088000   5.50337000   0.00963048  -0.00000000   0.00000000  -0.00000000
Cu   1.84088000   5.50337000   3.67213000  -0.00000000   0.00000000  -0.00000000
Cu   1.84088000   9.16587000   0.00963048  -0.00000000   0.00000000  -0.00000000
Cu   1.84088000   9.16587000   3.67213000  -0.00000000   0.00000000  -0.00000000
Cu   7.33462000   7.33462000   0.00963048   0.00000000   0.00000000  -0.00000000
Cu   7.33462000   7.33462000   3.67213000   0.00000000   0.00000000  -0.00000000
Cu   7.33462000   5.50337000   1.84088000   0.00000000   0.00000000  -0.00000000
Cu   7.33462000   9.16587000   1.84088000   0.00000000   0.00000000  -0.00000000
Cu   5.50337000   7.33462000   1.84088000   0.00000000   0.00000000  -0.00000000
Cu   9.16587000   7.33462000   1.84088000   0.00000000   0.00000000  -0.00000000
Cu   5.50337000   5.50337000   0.00963048   0.00000000   0.00000000  -0.00000000
Cu   5.50337000   5.50337000   3.67213000   0.00000000   0.00000000  -0.00000000
Cu   5.50337000   9.16587000   0.00963048   0.00000000   0.00000000  -0.00000000
Cu   5.50337000   9.16587000   3.67213000   0.00000000   0.00000000  -0.00000000
Cu   9.16587000   5.50337000   0.00963048   0.00000000   0.00000000  -0.00000000
Cu   9.16587000   5.50337000   3.67213000   0.00000000   0.00000000  -0.00000000
Cu   9.16587000   9.16587000   0.00963048   0.00000000   0.00000000  -0.00000000
Cu   9.16587000   9.16587000   3.67213000   0.00000000   0.00000000  -0.00000000
Cu   0.00963048   0.00963048   7.33462000  -0.00000000  -0.00000000   0.00000000
Cu   0.00963048   3.67213000   7.33462000  -0.00000000  -0.00000000   0.00000000
Cu   3.67213000   0.00963048   7.33462000  -0.00000000  -0.00000000   0.00000000
Cu   3.67213000   3.67213000   7.33462000  -0.00000000  -0.00000000   0.00000000
Cu   0.00963048   1.84088000   5.50337000  -0.00000000  -0.00000000   0.00000000
Cu   0.00963048   1.84088000   9.16587000  -0.00000000  -0.00000000   0.00000000
Cu   3.67213000   1.84088000   5.50337000  -0.00000000  -0.00000000   0.00000000
Cu   3.67213000   1.84088000   9.16587000  -0.00000000  -0.00000000   0.00000000
Cu   1.84088000   0.00963048   5.50337000  -0.00000000  -0.00000000   0.00000000
Cu   1.84088000   0.00963048   9.16587000  -0.00000000  -0.00000000   0.00000000
Cu   1.84088000   3.67213000   5.50337000  -0.00000000  -0.00000000   0.00000000
Cu   1.84088000   3.67213000   9.16587000  -0.00000000  -0.00000000   0.00000000
Cu   1.84088000   1.84088000   7.33462000  -0.00000000  -0.00000000   0.00000000
Cu   7.33462000   0.00963048   7.33462000   0.00000000  -0.00000000   0.00000000
Cu   7.33462000   3.67213000   7.33462000   0.00000000  -0.00000000   0.00000000
Cu   7.33462000   1.84088000   5.50337000   0.00000000  -0.00000000   0.00000000
Cu   7.33462000   1.84088000   9.16587000   0.00000000  -0.00000000   0.00000000
Cu   5.50337000   0.00963048   5.50337000   0.00000000  -0.00000000   0.00000000
Cu   5.50337000   0.00963048   9.16587000   0.00000000  -0.00000000   0.00000000
Cu   5.50337000   3.67213000   5.50337000   0.00000000  -0.00000000   0.00000000
Cu   5.50337000   3.67213000   9.16587000   0.00000000  -0.00000000   0.00000000
Cu   9.16587000   0.00963048   5.50337000   0.00000000  -0.00000000   0.00000000
Cu   9.16587000   0.00963048   9.16587000   0.00000000  -0.00000000   0.00000000
Cu   9.16587000   3.67213000   5.50337000   0.00000000  -0.00000000   0.00000000
Cu   9.16587000   3.67213000   9.16587000   0.00000000  -0.00000000   0.00000000
Cu   5.50337000   1.84088000   7.33462000   0.00000000  -0.00000000   0.00000000
Cu   9.16587000   1.84088000   7.33462000   0.00000000  -0.00000000   0.00000000
Cu   0.00963048   7.33462000   7.33462000  -0.00000000   0.00000000   0.00000000
Cu   3.67213000   7.33462000   7.33462000  -0.00000000   0.00000000   0.00000000
Cu   0.00963048   5.50337000   5.50337000  -0.00000000   0.00000000   0.00000000
Cu   0.00963048   5.50337000   9.16587000  -0.00000000   0.00000000   0.00000000
Cu   0.00963048   9.16587000   5.50337000  -0.00000000   0.00000000   0.00000000
Cu   0.00963048   9.16587000   9.16587000  -0.00000000   0.00000000   0.00000000
Cu   3.67213000   5.50337000   5.50337000  -0.00000000   0.00000000   0.00000000
Cu   3.67213000   5.50337000   9.16587000  -0.00000000   0.00000000   0.00000000
Cu   3.67213000   9.16587000   5.50337000  -0.00000000   0.00000000   0.00000000
Cu   3.67213000   9.16587000   9.16587000  -0.00000000   0.00000000   0.00000000
Cu   1.84088000   7.33462000   5.50337000  -0.00000000   0.00000000   0.00000000
Cu   1.84088000   7.33462000   9.16587000  -0.00000000   0.00000000   0.00000000
Cu   1.84088000   5.50337000   7.33462000  -0.00000000   0.00000000   0.00000000
Cu   1.84088000   9.16587000   7.33462000  -0.00000000   0.00000000   0.00000000
Cu   7.33462000   7.33462000   7.33462000   0.00000000   0.00000000   0.00000000
Cu   7.33462000   5.50337000   5.50337000   0.00000000   0.00000000   0.00000000
Cu   7.33462000   5.50337000   9.16587000   0.00000000   0.00000000   0.00000000
Cu   7.33462000   9.16587000   5.50337000   0.00000000   0.00000000   0.00000000
Cu   7.33462000   9.16587000   9.16587000   0.00000000   0.00000000   0.00000000
Cu   5.50337000   7.33462000   5.50337000   0.00000000   0.00000000   0.00000000
Cu   5.50337000   7.33462000   9.16587000   0.00000000   0.00000000   0.00000000
Cu   9.16587000   7.33462000   5.50337000   0.00000000   0.00000000   0.00000000
Cu   9.16587000   7.33462000   9.16587000   0.00000000   0.00000000   0.00000000
Cu   5.50337000   5.50337000   7.33462000   0.00000000   0.00000000   0.00000000
Cu   5.50337000   9.16587000   7.33462000   0.00000000   0.00000000   0.00000000
Cu   9.16587000   5.50337000   7.33462000   0.00000000   0.00000000   0.00000000
Cu   9.16587000   9.16587000   7.33462000   0.00000000   0.00000000   0.00000000
