108
Lattice="11.1265828552684 0.0 0.0 0.0 11.1265828552684 0.0 0.0 0.0 11.1265828552684" Properties=species:S:1:pos:R:3:forces:R:3 virial="-62.833323516853156 2.142933496773668e-15 1.423213933973855e-14 2.142933496773668e-15 -62.83332351685324 -1.8555064241622422e-14 1.423213933973855e-14 -1.8555064241622422e-14 -62.83332351685324" label=1 energy=-400.63321112136 stress="0.04561467795940413 -1.5556907684110065e-18 -1.0332008818241383e-17 -1.5556907684110065e-18 0.045614677959404194 1.3470293031223235e-17 -1.0332008818241383e-17 1.3470293031223235e-17 0.045614677959404194" free_energy=-400.63321112136 pbc="T T T"
Cu   0.00975240   0.00975240   0.00975240  -0.00000000  -0.00000000  -0.00000000
Cu   0.00975240   0.00975240   3.71861000  -0.00000000  -0.00000000  -0.00000000
Cu   0.00975240   3.71861000   0.00975240  -0.00000000  -0.00000000  -0.00000000
Cu   0.00975240   3.71861000   3.71861000  -0.00000000  -0.00000000  -0.00000000
Cu   3.71861000   0.00975240   0.00975240  -0.00000000  -0.00000000  -0.00000000
Cu   3.71861000   0.00975240   3.71861000  -0.00000000  -0.00000000  -0.00000000
Cu   3.71861000   3.71861000   0.00975240  -0.00000000  -0.00000000  -0.00000000
Cu   3.71861000   3.71861000   3.71861000  -0.00000000  -0.00000000  -0.00000000
Cu   0.00975240   1.86418000   1.86418000  -0.00000000  -0.00000000  -0.00000000
Cu   3.71861000   1.86418000   1.86418000  -0.00000000  -0.00000000  -0.00000000
Cu   1.86418000   0.00975240   1.86418000  -0.00000000  -0.00000000  -0.00000000
Cu   1.86418000   3.71861000   1.86418000  -0.00000000  -0.00000000  -0.00000000
Cu   1.86418000   1.86418000   0.00975240  -0.00000000  -0.00000000  -0.00000000
Cu   1.86418000   1.86418000   3.71861000  -0.00000000  -0.00000000  -0.00000000
Cu   7.42747000   0.00975240   0.00975240   0.00000000  -0.00000000  -0.00000000
Cu   7.42747000   0.00975240   3.71861000   0.00000000  -0.00000000  -0.00000000
Cu   7.42747000   3.71861000   0.00975240   0.00000000  -0.00000000  -0.00000000
Cu   7.42747000   3.71861000   3.71861000   0.00000000  -0.00000000  -0.00000000
Cu   7.42747000   1.86418000   1.86418000   0.00000000  -0.00000000  -0.00000000
Cu   5.57304000   0.00975240   1.86418000   0.00000000  -0.00000000  -0.00000000
Cu   5.57304000   3.71861000   1.86418000   0.00000000  -0.00000000  -0.00000000
Cu   9.28190000   0.00975240   1.86418000   0.00000000  -0.00000000  -0.00000000
Cu   9.28190000   3.71861000   1.86418000   0.00000000  -0.00000000  -0.00000000
Cu   5.57304000   1.86418000   0.00975240   0.00000000  -0.00000000  -0.00000000
Cu   5.57304000   1.86418000   3.71861000   0.00000000  -0.00000000  -0.00000000
Cu   9.28190000   1.86418000   0.00975240   0.00000000  -0.00000000  -0.00000000
Cu   9.28190000   1.86418000   3.71861000   0.00000000  -0.00000000  -0.00000000
Cu   0.00975240   7.42747000   0.00975240  -0.00000000   0.00000000  -0.00000000
Cu   0.00975240   7.42747000   3.71861000  -0.00000000   0.00000000  -0.00000000
Cu   3.71861000   7.42747000   0.00975240  -0.00000000   0.00000000  -0.00000000
Cu   3.71861000   7.42747000   3.71861000  -0.00000000   0.00000000  -0.00000000
Cu   0.00975240   5.57304000   1.86418000  -0.00000000   0.00000000  -0.00000000
Cu   0.00975240   9.28190000   1.86418000  -0.00000000   0.00000000  -0.00000000
Cu   3.71861000   5.57304000   1.86418000  -0.00000000   0.00000000  -0.00000000
Cu   3.71861000   9.28190000   1.86418000  -0.00000000   0.00000000  -0.00000000
Cu   1.86418000   7.42747000   1.86418000  -0.00000000   0.00000000  -0.00000000
Cu   1.86418000   5.57304000   0.00975240  -0.00000000   0.00000000  -0.00000000
Cu   1.86418000   5.57304000   3.71861000  -0.00000000   0.00000000  -0.00000000
Cu   1.86418000   9.28190000   0.00975240  -0.00000000   0.00000000  -0.00000000
Cu   1.86418000   9.28190000   3.71861000  -0.00000000   0.00000000  -0.00000000
Cu   7.42747000   7.42747000   0.00975240   0.00000000   0.00000000  -0.00000000
Cu   7.42747000   7.42747000   3.71861000   0.00000000   0.00000000  -0.00000000
Cu   7.42747000   5.57304000   1.86418000   0.00000000   0.00000000  -0.00000000
Cu   7.42747000   9.28190000   1.86418000   0.00000000   0.00000000  -0.00000000
Cu   5.57304000   7.42747000   1.86418000   0.00000000   0.00000000  -0.00000000
Cu   9.28190000   7.42747000   1.86418000   0.00000000   0.00000000  -0.00000000
Cu   5.57304000   5.57304000   0.00975240   0.00000000   0.00000000  -0.00000000
Cu   5.57304000   5.57304000   3.71861000   0.00000000   0.00000000  -0.00000000
Cu   5.57304000   9.28190000   0.00975240   0.00000000   0.00000000  -0.00000000
Cu   5.57304000   9.28190000   3.71861000   0.00000000   0.00000000  -0.00000000
Cu   9.28190000   5.57304000   0.00975240   0.00000000   0.00000000  -0.00000000
Cu   9.28190000   5.57304000   3.71861000   0.00000000   0.00000000  -0.00000000
Cu   9.28190000   9.28190000   0.00975240   0.00000000   0.00000000  -0.00000000
Cu   9.28190000   9.28190000   3.71861000   0.00000000   0.00000000  -0.00000000
Cu   0.00975240   0.00975240   7.42747000  -0.00000000  -0.00000000   0.00000000
Cu   0.00975240   3.71861000   7.42747000  -0.00000000  -0.00000000   0.00000000
Cu   3.71861000   0.00975240   7.42747000  -0.00000000  -0.00000000   0.00000000
Cu   3.71861000   3.71861000   7.42747000  -0.00000000  -0.00000000   0.00000000
Cu   0.00975240   1.86418000   5.57304000  -0.00000000  -0.00000000   0.00000000
Cu   0.00975240   1.86418000   9.28190000  -0.00000000  -0.00000000   0.00000000
Cu   3.71861000   1.86418000   5.57304000  -0.00000000  -0.00000000   0.00000000
Cu   3.71861000   1.86418000   9.28190000  -0.00000000  -0.00000000   0.00000000
Cu   1.86418000   0.00975240   5.57304000  -0.00000000  -0.00000000   0.00000000
Cu   1.86418000   0.00975240   9.28190000  -0.00000000  -0.00000000   0.00000000
Cu   1.86418000   3.71861000   5.57304000  -0.00000000  -0.00000000   0.00000000
Cu   1.86418000   3.71861000   9.28190000  -0.00000000  -0.00000000   0.00000000
Cu   1.86418000   1.86418000   7.42747000  -0.00000000  -0.00000000   0.00000000
Cu   7.42747000   0.00975240   7.42747000   0.00000000  -0.00000000   0.00000000
Cu   7.42747000   3.71861000   7.42747000   0.00000000  -0.00000000   0.00000000
Cu   7.42747000   1.86418000   5.57304000   0.00000000  -0.00000000   0.00000000
Cu   7.42747000   1.86418000   9.28190000   0.00000000  -0.00000000   0.00000000
Cu   5.57304000   0.00975240   5.57304000   0.00000000  -0.00000000   0.00000000
Cu   5.57304000   0.00975240   9.28190000   0.00000000  -0.00000000   0.00000000
Cu   5.57304000   3.71861000   5.57304000   0.00000000  -0.00000000   0.00000000
Cu   5.57304000   3.71861000   9.28190000   0.00000000  -0.00000000   0.00000000
Cu   9.28190000   0.00975240   5.57304000   0.00000000  -0.00000000   0.00000000
Cu   9.28190000   0.00975240   9.28190000   0.00000000  -0.00000000   0.00000000
Cu   9.28190000   3.71861000   5.57304000   0.00000000  -0.00000000   0.00000000
Cu   9.28190000   3.71861000   9.28190000   0.00000000  -0.00000000   0.00000000
Cu   5.57304000   1.86418000   7.42747000   0.00000000  -0.00000000   0.00000000
Cu   9.28190000   1.86418000   7.42747000   0.00000000  -0.00000000   0.00000000
Cu   0.00975240   7.42747000   7.42747000  -0.00000000   0.00000000   0.00000000
Cu   3.71861000   7.42747000   7.42747000  -0.00000000   0.00000000   0.00000000
Cu   0.00975240   5.57304000   5.57304000  -0.00000000   0.00000000   0.00000000
Cu   0.00975240   5.57304000   9.28190000  -0.00000000   0.00000000   0.00000000
Cu   0.00975240   9.28190000   5.57304000  -0.00000000   0.00000000   0.00000000
Cu   0.00975240   9.28190000   9.28190000  -0.00000000   0.00000000   0.00000000
Cu   3.71861000   5.57304000   5.57304000  -0.00000000   0.00000000   0.00000000
Cu   3.71861000   5.57304000   9.28190000  -0.00000000   0.00000000   0.00000000
Cu   3.71861000   9.28190000   5.57304000  -0.00000000   0.00000000   0.00000000
Cu   3.71861000   9.28190000   9.28190000  -0.00000000   0.00000000   0.00000000
Cu   1.86418000   7.42747000   5.57304000  -0.00000000   0.00000000   0.00000000
Cu   1.86418000   7.42747000   9.28190000  -0.00000000   0.00000000   0.00000000
Cu   1.86418000   5.57304000   7.42747000  -0.00000000   0.00000000   0.00000000
Cu   1.86418000   9.28190000   7.42747000  -0.00000000   0.00000000   0.00000000
Cu   7.42747000   7.42747000   7.42747000   0.00000000   0.00000000   0.00000000
Cu   7.42747000   5.57304000   5.57304000   0.00000000   0.00000000   0.00000000
Cu   7.42747000   5.57304000   9.28190000   0.00000000   0.00000000   0.00000000
Cu   7.42747000   9.28190000   5.57304000   0.00000000   0.00000000   0.00000000
Cu   7.42747000   9.28190000   9.28190000   0.00000000   0.00000000   0.00000000
Cu   5.57304000   7.42747000   5.57304000   0.00000000   0.00000000   0.00000000
Cu   5.57304000   7.42747000   9.28190000   0.00000000   0.00000000   0.00000000
Cu   9.28190000   7.42747000   5.57304000   0.00000000   0.00000000   0.00000000
Cu   9.28190000   7.42747000   9.28190000   0.00000000   0.00000000   0.00000000
Cu   5.57304000   5.57304000   7.42747000   0.00000000   0.00000000   0.00000000
Cu   5.57304000   9.28190000   7.42747000   0.00000000   0.00000000   0.00000000
Cu   9.28190000   5.57304000   7.42747000   0.00000000   0.00000000   0.00000000
Cu   9.28190000   9.28190000   7.42747000   0.00000000   0.00000000   0.00000000
