108
Lattice="11.057471861932 0.0 0.0 0.0 11.057471861932 0.0 0.0 0.0 11.057471861932" Properties=species:S:1:pos:R:3:forces:R:3 virial="-44.878710804087675 1.0624156423141509e-14 2.5677861362475715e-14 1.0624156423141509e-14 -44.87871080408759 -8.896909345514458e-15 2.5677861362475715e-14 -8.896909345514458e-15 -44.87871080408759" label=1 energy=-401.641634081035 stress="0.033195013080671354 -7.858269658787947e-18 -1.8992901724204834e-17 -7.858269658787947e-18 0.03319501308067129 6.580693090564445e-18 -1.8992901724204834e-17 6.580693090564445e-18 0.03319501308067129" free_energy=-401.641634081035 pbc="T T T"
Cu   0.00969182   0.00969182   0.00969182  -0.00000000  -0.00000000  -0.00000000
Cu   0.00969182   0.00969182   3.69552000  -0.00000000  -0.00000000  -0.00000000
Cu   0.00969182   3.69552000   0.00969182  -0.00000000  -0.00000000  -0.00000000
Cu   0.00969182   3.69552000   3.69552000  -0.00000000  -0.00000000  -0.00000000
Cu   3.69552000   0.00969182   0.00969182  -0.00000000  -0.00000000  -0.00000000
Cu   3.69552000   0.00969182   3.69552000  -0.00000000  -0.00000000  -0.00000000
Cu   3.69552000   3.69552000   0.00969182  -0.00000000  -0.00000000  -0.00000000
Cu   3.69552000   3.69552000   3.69552000  -0.00000000  -0.00000000  -0.00000000
Cu   0.00969182   1.85260000   1.85260000  -0.00000000  -0.00000000  -0.00000000
Cu   3.69552000   1.85260000   1.85260000  -0.00000000  -0.00000000  -0.00000000
Cu   1.85260000   0.00969182   1.85260000  -0.00000000  -0.00000000  -0.00000000
Cu   1.85260000   3.69552000   1.85260000  -0.00000000  -0.00000000  -0.00000000
Cu   1.85260000   1.85260000   0.00969182  -0.00000000  -0.00000000  -0.00000000
Cu   1.85260000   1.85260000   3.69552000  -0.00000000  -0.00000000  -0.00000000
Cu   7.38134000   0.00969182   0.00969182   0.00000000  -0.00000000  -0.00000000
Cu   7.38134000   0.00969182   3.69552000   0.00000000  -0.00000000  -0.00000000
Cu   7.38134000   3.69552000   0.00969182   0.00000000  -0.00000000  -0.00000000
Cu   7.38134000   3.69552000   3.69552000   0.00000000  -0.00000000  -0.00000000
Cu   7.38134000   1.85260000   1.85260000   0.00000000  -0.00000000  -0.00000000
Cu   5.53843000   0.00969182   1.85260000   0.00000000  -0.00000000  -0.00000000
Cu   5.53843000   3.69552000   1.85260000   0.00000000  -0.00000000  -0.00000000
Cu   9.22425000   0.00969182   1.85260000   0.00000000  -0.00000000  -0.00000000
Cu   9.22425000   3.69552000   1.85260000   0.00000000  -0.00000000  -0.00000000
Cu   5.53843000   1.85260000   0.00969182   0.00000000  -0.00000000  -0.00000000
Cu   5.53843000   1.85260000   3.69552000   0.00000000  -0.00000000  -0.00000000
Cu   9.22425000   1.85260000   0.00969182   0.00000000  -0.00000000  -0.00000000
Cu   9.22425000   1.85260000   3.69552000   0.00000000  -0.00000000  -0.00000000
Cu   0.00969182   7.38134000   0.00969182  -0.00000000   0.00000000  -0.00000000
Cu   0.00969182   7.38134000   3.69552000  -0.00000000   0.00000000  -0.00000000
Cu   3.69552000   7.38134000   0.00969182  -0.00000000   0.00000000  -0.00000000
Cu   3.69552000   7.38134000   3.69552000  -0.00000000   0.00000000  -0.00000000
Cu   0.00969182   5.53843000   1.85260000  -0.00000000   0.00000000  -0.00000000
Cu   0.00969182   9.22425000   1.85260000  -0.00000000   0.00000000  -0.00000000
Cu   3.69552000   5.53843000   1.85260000  -0.00000000   0.00000000  -0.00000000
Cu   3.69552000   9.22425000   1.85260000  -0.00000000   0.00000000  -0.00000000
Cu   1.85260000   7.38134000   1.85260000  -0.00000000   0.00000000  -0.00000000
Cu   1.85260000   5.53843000   0.00969182  -0.00000000   0.00000000  -0.00000000
Cu   1.85260000   5.53843000   3.69552000  -0.00000000   0.00000000  -0.00000000
Cu   1.85260000   9.22425000   0.00969182  -0.00000000   0.00000000  -0.00000000
Cu   1.85260000   9.22425000   3.69552000  -0.00000000   0.00000000  -0.00000000
Cu   7.38134000   7.38134000   0.00969182   0.00000000   0.00000000  -0.00000000
Cu   7.38134000   7.38134000   3.69552000   0.00000000   0.00000000  -0.00000000
Cu   7.38134000   5.53843000   1.85260000   0.00000000   0.00000000  -0.00000000
Cu   7.38134000   9.22425000   1.85260000   0.00000000   0.00000000  -0.00000000
Cu   5.53843000   7.38134000   1.85260000   0.00000000   0.00000000  -0.00000000
Cu   9.22425000   7.38134000   1.85260000   0.00000000   0.00000000  -0.00000000
Cu   5.53843000   5.53843000   0.00969182   0.00000000   0.00000000  -0.00000000
Cu   5.53843000   5.53843000   3.69552000   0.00000000   0.00000000  -0.00000000
Cu   5.53843000   9.22425000   0.00969182   0.00000000   0.00000000  -0.00000000
Cu   5.53843000   9.22425000   3.69552000   0.00000000   0.00000000  -0.00000000
Cu   9.22425000   5.53843000   0.00969182   0.00000000   0.00000000  -0.00000000
Cu   9.22425000   5.53843000   3.69552000   0.00000000   0.00000000  -0.00000000
Cu   9.22425000   9.22425000   0.00969182   0.00000000   0.00000000  -0.00000000
Cu   9.22425000   9.22425000   3.69552000   0.00000000   0.00000000  -0.00000000
Cu   0.00969182   0.00969182   7.38134000  -0.00000000  -0.00000000   0.00000000
Cu   0.00969182   3.69552000   7.38134000  -0.00000000  -0.00000000   0.00000000
Cu   3.69552000   0.00969182   7.38134000  -0.00000000  -0.00000000   0.00000000
Cu   3.69552000   3.69552000   7.38134000  -0.00000000  -0.00000000   0.00000000
Cu   0.00969182   1.85260000   5.53843000  -0.00000000  -0.00000000   0.00000000
Cu   0.00969182   1.85260000   9.22425000  -0.00000000  -0.00000000   0.00000000
Cu   3.69552000   1.85260000   5.53843000  -0.00000000  -0.00000000   0.00000000
Cu   3.69552000   1.85260000   9.22425000  -0.00000000  -0.00000000   0.00000000
Cu   1.85260000   0.00969182   5.53843000  -0.00000000  -0.00000000   0.00000000
Cu   1.85260000   0.00969182   9.22425000  -0.00000000  -0.00000000   0.00000000
Cu   1.85260000   3.69552000   5.53843000  -0.00000000  -0.00000000   0.00000000
Cu   1.85260000   3.69552000   9.22425000  -0.00000000  -0.00000000   0.00000000
Cu   1.85260000   1.85260000   7.38134000  -0.00000000  -0.00000000   0.00000000
Cu   7.38134000   0.00969182   7.38134000   0.00000000  -0.00000000   0.00000000
Cu   7.38134000   3.69552000   7.38134000   0.00000000  -0.00000000   0.00000000
Cu   7.38134000   1.85260000   5.53843000   0.00000000  -0.00000000   0.00000000
Cu   7.38134000   1.85260000   9.22425000   0.00000000  -0.00000000   0.00000000
Cu   5.53843000   0.00969182   5.53843000   0.00000000  -0.00000000   0.00000000
Cu   5.53843000   0.00969182   9.22425000   0.00000000  -0.00000000   0.00000000
Cu   5.53843000   3.69552000   5.53843000   0.00000000  -0.00000000   0.00000000
Cu   5.53843000   3.69552000   9.22425000   0.00000000  -0.00000000   0.00000000
Cu   9.22425000   0.00969182   5.53843000   0.00000000  -0.00000000   0.00000000
Cu   9.22425000   0.00969182   9.22425000   0.00000000  -0.00000000   0.00000000
Cu   9.22425000   3.69552000   5.53843000   0.00000000  -0.00000000   0.00000000
Cu   9.22425000   3.69552000   9.22425000   0.00000000  -0.00000000   0.00000000
Cu   5.53843000   1.85260000   7.38134000   0.00000000  -0.00000000   0.00000000
Cu   9.22425000   1.85260000   7.38134000   0.00000000  -0.00000000   0.00000000
Cu   0.00969182   7.38134000   7.38134000  -0.00000000   0.00000000   0.00000000
Cu   3.69552000   7.38134000   7.38134000  -0.00000000   0.00000000   0.00000000
Cu   0.00969182   5.53843000   5.53843000  -0.00000000   0.00000000   0.00000000
Cu   0.00969182   5.53843000   9.22425000  -0.00000000   0.00000000   0.00000000
Cu   0.00969182   9.22425000   5.53843000  -0.00000000   0.00000000   0.00000000
Cu   0.00969182   9.22425000   9.22425000  -0.00000000   0.00000000   0.00000000
Cu   3.69552000   5.53843000   5.53843000  -0.00000000   0.00000000   0.00000000
Cu   3.69552000   5.53843000   9.22425000  -0.00000000   0.00000000   0.00000000
Cu   3.69552000   9.22425000   5.53843000  -0.00000000   0.00000000   0.00000000
Cu   3.69552000   9.22425000   9.22425000  -0.00000000   0.00000000   0.00000000
Cu   1.85260000   7.38134000   5.53843000  -0.00000000   0.00000000   0.00000000
Cu   1.85260000   7.38134000   9.22425000  -0.00000000   0.00000000   0.00000000
Cu   1.85260000   5.53843000   7.38134000  -0.00000000   0.00000000   0.00000000
Cu   1.85260000   9.22425000   7.38134000  -0.00000000   0.00000000   0.00000000
Cu   7.38134000   7.38134000   7.38134000   0.00000000   0.00000000   0.00000000
Cu   7.38134000   5.53843000   5.53843000   0.00000000   0.00000000   0.00000000
Cu   7.38134000   5.53843000   9.22425000   0.00000000   0.00000000   0.00000000
Cu   7.38134000   9.22425000   5.53843000   0.00000000   0.00000000   0.00000000
Cu   7.38134000   9.22425000   9.22425000   0.00000000   0.00000000   0.00000000
Cu   5.53843000   7.38134000   5.53843000   0.00000000   0.00000000   0.00000000
Cu   5.53843000   7.38134000   9.22425000   0.00000000   0.00000000   0.00000000
Cu   9.22425000   7.38134000   5.53843000   0.00000000   0.00000000   0.00000000
Cu   9.22425000   7.38134000   9.22425000   0.00000000   0.00000000   0.00000000
Cu   5.53843000   5.53843000   7.38134000   0.00000000   0.00000000   0.00000000
Cu   5.53843000   9.22425000   7.38134000   0.00000000   0.00000000   0.00000000
Cu   9.22425000   5.53843000   7.38134000   0.00000000   0.00000000   0.00000000
Cu   9.22425000   9.22425000   7.38134000   0.00000000   0.00000000   0.00000000
