108
Lattice="10.8447752115 0.0 0.0 0.0 10.8447752115 0.0 0.0 0.0 10.8447752115" Properties=species:S:1:pos:R:3:forces:R:3 virial="18.62042757974654 2.526838808616114e-14 -1.3978755317252368e-14 2.526838808616114e-14 18.620427579746462 2.1229189406513134e-14 -1.3978755317252368e-14 2.1229189406513134e-14 18.62042757974654" label=1 energy=-402.463758854347 stress="-0.014599163959102525 -1.981143231390397e-17 1.0959906261374985e-17 -1.981143231390397e-17 -0.014599163959102464 -1.6644538130887883e-17 1.0959906261374985e-17 -1.6644538130887883e-17 -0.014599163959102525" free_energy=-402.463758854347 pbc="T T T"
Cu   0.00950539   0.00950539   0.00950539  -0.00000000  -0.00000000  -0.00000000
Cu   0.00950539   0.00950539   3.62443000  -0.00000000  -0.00000000  -0.00000000
Cu   0.00950539   3.62443000   0.00950539  -0.00000000  -0.00000000  -0.00000000
Cu   0.00950539   3.62443000   3.62443000  -0.00000000  -0.00000000  -0.00000000
Cu   3.62443000   0.00950539   0.00950539  -0.00000000  -0.00000000  -0.00000000
Cu   3.62443000   0.00950539   3.62443000  -0.00000000  -0.00000000  -0.00000000
Cu   3.62443000   3.62443000   0.00950539  -0.00000000  -0.00000000  -0.00000000
Cu   3.62443000   3.62443000   3.62443000  -0.00000000  -0.00000000  -0.00000000
Cu   0.00950539   1.81697000   1.81697000  -0.00000000  -0.00000000  -0.00000000
Cu   3.62443000   1.81697000   1.81697000  -0.00000000  -0.00000000  -0.00000000
Cu   1.81697000   0.00950539   1.81697000  -0.00000000  -0.00000000  -0.00000000
Cu   1.81697000   3.62443000   1.81697000  -0.00000000  -0.00000000  -0.00000000
Cu   1.81697000   1.81697000   0.00950539  -0.00000000  -0.00000000  -0.00000000
Cu   1.81697000   1.81697000   3.62443000  -0.00000000  -0.00000000  -0.00000000
Cu   7.23936000   0.00950539   0.00950539   0.00000000  -0.00000000  -0.00000000
Cu   7.23936000   0.00950539   3.62443000   0.00000000  -0.00000000  -0.00000000
Cu   7.23936000   3.62443000   0.00950539   0.00000000  -0.00000000  -0.00000000
Cu   7.23936000   3.62443000   3.62443000   0.00000000  -0.00000000  -0.00000000
Cu   7.23936000   1.81697000   1.81697000   0.00000000  -0.00000000  -0.00000000
Cu   5.43189000   0.00950539   1.81697000   0.00000000  -0.00000000  -0.00000000
Cu   5.43189000   3.62443000   1.81697000   0.00000000  -0.00000000  -0.00000000
Cu   9.04682000   0.00950539   1.81697000   0.00000000  -0.00000000  -0.00000000
Cu   9.04682000   3.62443000   1.81697000   0.00000000  -0.00000000  -0.00000000
Cu   5.43189000   1.81697000   0.00950539   0.00000000  -0.00000000  -0.00000000
Cu   5.43189000   1.81697000   3.62443000   0.00000000  -0.00000000  -0.00000000
Cu   9.04682000   1.81697000   0.00950539   0.00000000  -0.00000000  -0.00000000
Cu   9.04682000   1.81697000   3.62443000   0.00000000  -0.00000000  -0.00000000
Cu   0.00950539   7.23936000   0.00950539  -0.00000000   0.00000000  -0.00000000
Cu   0.00950539   7.23936000   3.62443000  -0.00000000   0.00000000  -0.00000000
Cu   3.62443000   7.23936000   0.00950539  -0.00000000   0.00000000  -0.00000000
Cu   3.62443000   7.23936000   3.62443000  -0.00000000   0.00000000  -0.00000000
Cu   0.00950539   5.43189000   1.81697000  -0.00000000   0.00000000  -0.00000000
Cu   0.00950539   9.04682000   1.81697000  -0.00000000   0.00000000  -0.00000000
Cu   3.62443000   5.43189000   1.81697000  -0.00000000   0.00000000  -0.00000000
Cu   3.62443000   9.04682000   1.81697000  -0.00000000   0.00000000  -0.00000000
Cu   1.81697000   7.23936000   1.81697000  -0.00000000   0.00000000  -0.00000000
Cu   1.81697000   5.43189000   0.00950539  -0.00000000   0.00000000  -0.00000000
Cu   1.81697000   5.43189000   3.62443000  -0.00000000   0.00000000  -0.00000000
Cu   1.81697000   9.04682000   0.00950539  -0.00000000   0.00000000  -0.00000000
Cu   1.81697000   9.04682000   3.62443000  -0.00000000   0.00000000  -0.00000000
Cu   7.23936000   7.23936000   0.00950539   0.00000000   0.00000000  -0.00000000
Cu   7.23936000   7.23936000   3.62443000   0.00000000   0.00000000  -0.00000000
Cu   7.23936000   5.43189000   1.81697000   0.00000000   0.00000000  -0.00000000
Cu   7.23936000   9.04682000   1.81697000   0.00000000   0.00000000  -0.00000000
Cu   5.43189000   7.23936000   1.81697000   0.00000000   0.00000000  -0.00000000
Cu   9.04682000   7.23936000   1.81697000   0.00000000   0.00000000  -0.00000000
Cu   5.43189000   5.43189000   0.00950539   0.00000000   0.00000000  -0.00000000
Cu   5.43189000   5.43189000   3.62443000   0.00000000   0.00000000  -0.00000000
Cu   5.43189000   9.04682000   0.00950539   0.00000000   0.00000000  -0.00000000
Cu   5.43189000   9.04682000   3.62443000   0.00000000   0.00000000  -0.00000000
Cu   9.04682000   5.43189000   0.00950539   0.00000000   0.00000000  -0.00000000
Cu   9.04682000   5.43189000   3.62443000   0.00000000   0.00000000  -0.00000000
Cu   9.04682000   9.04682000   0.00950539   0.00000000   0.00000000  -0.00000000
Cu   9.04682000   9.04682000   3.62443000   0.00000000   0.00000000  -0.00000000
Cu   0.00950539   0.00950539   7.23936000  -0.00000000  -0.00000000   0.00000000
Cu   0.00950539   3.62443000   7.23936000  -0.00000000  -0.00000000   0.00000000
Cu   3.62443000   0.00950539   7.23936000  -0.00000000  -0.00000000   0.00000000
Cu   3.62443000   3.62443000   7.23936000  -0.00000000  -0.00000000   0.00000000
Cu   0.00950539   1.81697000   5.43189000  -0.00000000  -0.00000000   0.00000000
Cu   0.00950539   1.81697000   9.04682000  -0.00000000  -0.00000000   0.00000000
Cu   3.62443000   1.81697000   5.43189000  -0.00000000  -0.00000000   0.00000000
Cu   3.62443000   1.81697000   9.04682000  -0.00000000  -0.00000000   0.00000000
Cu   1.81697000   0.00950539   5.43189000  -0.00000000  -0.00000000   0.00000000
Cu   1.81697000   0.00950539   9.04682000  -0.00000000  -0.00000000   0.00000000
Cu   1.81697000   3.62443000   5.43189000  -0.00000000  -0.00000000   0.00000000
Cu   1.81697000   3.62443000   9.04682000  -0.00000000  -0.00000000   0.00000000
Cu   1.81697000   1.81697000   7.23936000  -0.00000000  -0.00000000   0.00000000
Cu   7.23936000   0.00950539   7.23936000   0.00000000  -0.00000000   0.00000000
Cu   7.23936000   3.62443000   7.23936000   0.00000000  -0.00000000   0.00000000
Cu   7.23936000   1.81697000   5.43189000   0.00000000  -0.00000000   0.00000000
Cu   7.23936000   1.81697000   9.04682000   0.00000000  -0.00000000   0.00000000
Cu   5.43189000   0.00950539   5.43189000   0.00000000  -0.00000000   0.00000000
Cu   5.43189000   0.00950539   9.04682000   0.00000000  -0.00000000   0.00000000
Cu   5.43189000   3.62443000   5.43189000   0.00000000  -0.00000000   0.00000000
Cu   5.43189000   3.62443000   9.04682000   0.00000000  -0.00000000   0.00000000
Cu   9.04682000   0.00950539   5.43189000   0.00000000  -0.00000000   0.00000000
Cu   9.04682000   0.00950539   9.04682000   0.00000000  -0.00000000   0.00000000
Cu   9.04682000   3.62443000   5.43189000   0.00000000  -0.00000000   0.00000000
Cu   9.04682000   3.62443000   9.04682000   0.00000000  -0.00000000   0.00000000
Cu   5.43189000   1.81697000   7.23936000   0.00000000  -0.00000000   0.00000000
Cu   9.04682000   1.81697000   7.23936000   0.00000000  -0.00000000   0.00000000
Cu   0.00950539   7.23936000   7.23936000  -0.00000000   0.00000000   0.00000000
Cu   3.62443000   7.23936000   7.23936000  -0.00000000   0.00000000   0.00000000
Cu   0.00950539   5.43189000   5.43189000  -0.00000000   0.00000000   0.00000000
Cu   0.00950539   5.43189000   9.04682000  -0.00000000   0.00000000   0.00000000
Cu   0.00950539   9.04682000   5.43189000  -0.00000000   0.00000000   0.00000000
Cu   0.00950539   9.04682000   9.04682000  -0.00000000   0.00000000   0.00000000
Cu   3.62443000   5.43189000   5.43189000  -0.00000000   0.00000000   0.00000000
Cu   3.62443000   5.43189000   9.04682000  -0.00000000   0.00000000   0.00000000
Cu   3.62443000   9.04682000   5.43189000  -0.00000000   0.00000000   0.00000000
Cu   3.62443000   9.04682000   9.04682000  -0.00000000   0.00000000   0.00000000
Cu   1.81697000   7.23936000   5.43189000  -0.00000000   0.00000000   0.00000000
Cu   1.81697000   7.23936000   9.04682000  -0.00000000   0.00000000   0.00000000
Cu   1.81697000   5.43189000   7.23936000  -0.00000000   0.00000000   0.00000000
Cu   1.81697000   9.04682000   7.23936000  -0.00000000   0.00000000   0.00000000
Cu   7.23936000   7.23936000   7.23936000   0.00000000   0.00000000   0.00000000
Cu   7.23936000   5.43189000   5.43189000   0.00000000   0.00000000   0.00000000
Cu   7.23936000   5.43189000   9.04682000   0.00000000   0.00000000   0.00000000
Cu   7.23936000   9.04682000   5.43189000   0.00000000   0.00000000   0.00000000
Cu   7.23936000   9.04682000   9.04682000   0.00000000   0.00000000   0.00000000
Cu   5.43189000   7.23936000   5.43189000   0.00000000   0.00000000   0.00000000
Cu   5.43189000   7.23936000   9.04682000   0.00000000   0.00000000   0.00000000
Cu   9.04682000   7.23936000   5.43189000   0.00000000   0.00000000   0.00000000
Cu   9.04682000   7.23936000   9.04682000   0.00000000   0.00000000   0.00000000
Cu   5.43189000   5.43189000   7.23936000   0.00000000   0.00000000   0.00000000
Cu   5.43189000   9.04682000   7.23936000   0.00000000   0.00000000   0.00000000
Cu   9.04682000   5.43189000   7.23936000   0.00000000   0.00000000   0.00000000
Cu   9.04682000   9.04682000   7.23936000   0.00000000   0.00000000   0.00000000
