108
Lattice="10.6233911493283 0.0 0.0 0.0 10.6233911493283 0.0 0.0 0.0 10.6233911493283" Properties=species:S:1:pos:R:3:forces:R:3 virial="99.40197044991679 2.046118829230746e-14 -2.6884373760741488e-14 2.046118829230746e-14 99.40197044991753 -4.407434945889368e-14 -2.6884373760741488e-14 -4.407434945889368e-14 99.40197044991753" label=1 energy=-398.885067590671 stress="-0.08290972535640037 -1.7066376995368974e-17 2.2423861768464163e-17 -1.7066376995368974e-17 -0.082909725356401 3.676176832671578e-17 2.2423861768464163e-17 3.676176832671578e-17 -0.082909725356401" free_energy=-398.885067590671 pbc="T T T"
Cu   0.00931135   0.00931135   0.00931135  -0.00000000  -0.00000000  -0.00000000
Cu   0.00931135   0.00931135   3.55044000  -0.00000000  -0.00000000  -0.00000000
Cu   0.00931135   3.55044000   0.00931135  -0.00000000  -0.00000000  -0.00000000
Cu   0.00931135   3.55044000   3.55044000  -0.00000000  -0.00000000  -0.00000000
Cu   3.55044000   0.00931135   0.00931135  -0.00000000  -0.00000000  -0.00000000
Cu   3.55044000   0.00931135   3.55044000  -0.00000000  -0.00000000  -0.00000000
Cu   3.55044000   3.55044000   0.00931135  -0.00000000  -0.00000000  -0.00000000
Cu   3.55044000   3.55044000   3.55044000  -0.00000000  -0.00000000  -0.00000000
Cu   0.00931135   1.77988000   1.77988000  -0.00000000  -0.00000000  -0.00000000
Cu   3.55044000   1.77988000   1.77988000  -0.00000000  -0.00000000  -0.00000000
Cu   1.77988000   0.00931135   1.77988000  -0.00000000  -0.00000000  -0.00000000
Cu   1.77988000   3.55044000   1.77988000  -0.00000000  -0.00000000  -0.00000000
Cu   1.77988000   1.77988000   0.00931135  -0.00000000  -0.00000000  -0.00000000
Cu   1.77988000   1.77988000   3.55044000  -0.00000000  -0.00000000  -0.00000000
Cu   7.09157000   0.00931135   0.00931135   0.00000000  -0.00000000  -0.00000000
Cu   7.09157000   0.00931135   3.55044000   0.00000000  -0.00000000  -0.00000000
Cu   7.09157000   3.55044000   0.00931135   0.00000000  -0.00000000  -0.00000000
Cu   7.09157000   3.55044000   3.55044000   0.00000000  -0.00000000  -0.00000000
Cu   7.09157000   1.77988000   1.77988000   0.00000000  -0.00000000  -0.00000000
Cu   5.32101000   0.00931135   1.77988000   0.00000000  -0.00000000  -0.00000000
Cu   5.32101000   3.55044000   1.77988000   0.00000000  -0.00000000  -0.00000000
Cu   8.86214000   0.00931135   1.77988000   0.00000000  -0.00000000  -0.00000000
Cu   8.86214000   3.55044000   1.77988000   0.00000000  -0.00000000  -0.00000000
Cu   5.32101000   1.77988000   0.00931135   0.00000000  -0.00000000  -0.00000000
Cu   5.32101000   1.77988000   3.55044000   0.00000000  -0.00000000  -0.00000000
Cu   8.86214000   1.77988000   0.00931135   0.00000000  -0.00000000  -0.00000000
Cu   8.86214000   1.77988000   3.55044000   0.00000000  -0.00000000  -0.00000000
Cu   0.00931135   7.09157000   0.00931135  -0.00000000   0.00000000  -0.00000000
Cu   0.00931135   7.09157000   3.55044000  -0.00000000   0.00000000  -0.00000000
Cu   3.55044000   7.09157000   0.00931135  -0.00000000   0.00000000  -0.00000000
Cu   3.55044000   7.09157000   3.55044000  -0.00000000   0.00000000  -0.00000000
Cu   0.00931135   5.32101000   1.77988000  -0.00000000   0.00000000  -0.00000000
Cu   0.00931135   8.86214000   1.77988000  -0.00000000   0.00000000  -0.00000000
Cu   3.55044000   5.32101000   1.77988000  -0.00000000   0.00000000  -0.00000000
Cu   3.55044000   8.86214000   1.77988000  -0.00000000   0.00000000  -0.00000000
Cu   1.77988000   7.09157000   1.77988000  -0.00000000   0.00000000  -0.00000000
Cu   1.77988000   5.32101000   0.00931135  -0.00000000   0.00000000  -0.00000000
Cu   1.77988000   5.32101000   3.55044000  -0.00000000   0.00000000  -0.00000000
Cu   1.77988000   8.86214000   0.00931135  -0.00000000   0.00000000  -0.00000000
Cu   1.77988000   8.86214000   3.55044000  -0.00000000   0.00000000  -0.00000000
Cu   7.09157000   7.09157000   0.00931135   0.00000000   0.00000000  -0.00000000
Cu   7.09157000   7.09157000   3.55044000   0.00000000   0.00000000  -0.00000000
Cu   7.09157000   5.32101000   1.77988000   0.00000000   0.00000000  -0.00000000
Cu   7.09157000   8.86214000   1.77988000   0.00000000   0.00000000  -0.00000000
Cu   5.32101000   7.09157000   1.77988000   0.00000000   0.00000000  -0.00000000
Cu   8.86214000   7.09157000   1.77988000   0.00000000   0.00000000  -0.00000000
Cu   5.32101000   5.32101000   0.00931135   0.00000000   0.00000000  -0.00000000
Cu   5.32101000   5.32101000   3.55044000   0.00000000   0.00000000  -0.00000000
Cu   5.32101000   8.86214000   0.00931135   0.00000000   0.00000000  -0.00000000
Cu   5.32101000   8.86214000   3.55044000   0.00000000   0.00000000  -0.00000000
Cu   8.86214000   5.32101000   0.00931135   0.00000000   0.00000000  -0.00000000
Cu   8.86214000   5.32101000   3.55044000   0.00000000   0.00000000  -0.00000000
Cu   8.86214000   8.86214000   0.00931135   0.00000000   0.00000000  -0.00000000
Cu   8.86214000   8.86214000   3.55044000   0.00000000   0.00000000  -0.00000000
Cu   0.00931135   0.00931135   7.09157000  -0.00000000  -0.00000000   0.00000000
Cu   0.00931135   3.55044000   7.09157000  -0.00000000  -0.00000000   0.00000000
Cu   3.55044000   0.00931135   7.09157000  -0.00000000  -0.00000000   0.00000000
Cu   3.55044000   3.55044000   7.09157000  -0.00000000  -0.00000000   0.00000000
Cu   0.00931135   1.77988000   5.32101000  -0.00000000  -0.00000000   0.00000000
Cu   0.00931135   1.77988000   8.86214000  -0.00000000  -0.00000000   0.00000000
Cu   3.55044000   1.77988000   5.32101000  -0.00000000  -0.00000000   0.00000000
Cu   3.55044000   1.77988000   8.86214000  -0.00000000  -0.00000000   0.00000000
Cu   1.77988000   0.00931135   5.32101000  -0.00000000  -0.00000000   0.00000000
Cu   1.77988000   0.00931135   8.86214000  -0.00000000  -0.00000000   0.00000000
Cu   1.77988000   3.55044000   5.32101000  -0.00000000  -0.00000000   0.00000000
Cu   1.77988000   3.55044000   8.86214000  -0.00000000  -0.00000000   0.00000000
Cu   1.77988000   1.77988000   7.09157000  -0.00000000  -0.00000000   0.00000000
Cu   7.09157000   0.00931135   7.09157000   0.00000000  -0.00000000   0.00000000
Cu   7.09157000   3.55044000   7.09157000   0.00000000  -0.00000000   0.00000000
Cu   7.09157000   1.77988000   5.32101000   0.00000000  -0.00000000   0.00000000
Cu   7.09157000   1.77988000   8.86214000   0.00000000  -0.00000000   0.00000000
Cu   5.32101000   0.00931135   5.32101000   0.00000000  -0.00000000   0.00000000
Cu   5.32101000   0.00931135   8.86214000   0.00000000  -0.00000000   0.00000000
Cu   5.32101000   3.55044000   5.32101000   0.00000000  -0.00000000   0.00000000
Cu   5.32101000   3.55044000   8.86214000   0.00000000  -0.00000000   0.00000000
Cu   8.86214000   0.00931135   5.32101000   0.00000000  -0.00000000   0.00000000
Cu   8.86214000   0.00931135   8.86214000   0.00000000  -0.00000000   0.00000000
Cu   8.86214000   3.55044000   5.32101000   0.00000000  -0.00000000   0.00000000
Cu   8.86214000   3.55044000   8.86214000   0.00000000  -0.00000000   0.00000000
Cu   5.32101000   1.77988000   7.09157000   0.00000000  -0.00000000   0.00000000
Cu   8.86214000   1.77988000   7.09157000   0.00000000  -0.00000000   0.00000000
Cu   0.00931135   7.09157000   7.09157000  -0.00000000   0.00000000   0.00000000
Cu   3.55044000   7.09157000   7.09157000  -0.00000000   0.00000000   0.00000000
Cu   0.00931135   5.32101000   5.32101000  -0.00000000   0.00000000   0.00000000
Cu   0.00931135   5.32101000   8.86214000  -0.00000000   0.00000000   0.00000000
Cu   0.00931135   8.86214000   5.32101000  -0.00000000   0.00000000   0.00000000
Cu   0.00931135   8.86214000   8.86214000  -0.00000000   0.00000000   0.00000000
Cu   3.55044000   5.32101000   5.32101000  -0.00000000   0.00000000   0.00000000
Cu   3.55044000   5.32101000   8.86214000  -0.00000000   0.00000000   0.00000000
Cu   3.55044000   8.86214000   5.32101000  -0.00000000   0.00000000   0.00000000
Cu   3.55044000   8.86214000   8.86214000  -0.00000000   0.00000000   0.00000000
Cu   1.77988000   7.09157000   5.32101000  -0.00000000   0.00000000   0.00000000
Cu   1.77988000   7.09157000   8.86214000  -0.00000000   0.00000000   0.00000000
Cu   1.77988000   5.32101000   7.09157000  -0.00000000   0.00000000   0.00000000
Cu   1.77988000   8.86214000   7.09157000  -0.00000000   0.00000000   0.00000000
Cu   7.09157000   7.09157000   7.09157000   0.00000000   0.00000000   0.00000000
Cu   7.09157000   5.32101000   5.32101000   0.00000000   0.00000000   0.00000000
Cu   7.09157000   5.32101000   8.86214000   0.00000000   0.00000000   0.00000000
Cu   7.09157000   8.86214000   5.32101000   0.00000000   0.00000000   0.00000000
Cu   7.09157000   8.86214000   8.86214000   0.00000000   0.00000000   0.00000000
Cu   5.32101000   7.09157000   5.32101000   0.00000000   0.00000000   0.00000000
Cu   5.32101000   7.09157000   8.86214000   0.00000000   0.00000000   0.00000000
Cu   8.86214000   7.09157000   5.32101000   0.00000000   0.00000000   0.00000000
Cu   8.86214000   7.09157000   8.86214000   0.00000000   0.00000000   0.00000000
Cu   5.32101000   5.32101000   7.09157000   0.00000000   0.00000000   0.00000000
Cu   5.32101000   8.86214000   7.09157000   0.00000000   0.00000000   0.00000000
Cu   8.86214000   5.32101000   7.09157000   0.00000000   0.00000000   0.00000000
Cu   8.86214000   8.86214000   7.09157000   0.00000000   0.00000000   0.00000000
