LAMMPS (22 Jul 2025 - Update 2)
  using 1 OpenMP thread(s) per MPI task
units           metal
dimension       3
boundary        p p p
atom_style      atomic

# ---------- 结构 ----------
read_data       cu333.data
Reading data file ...
  triclinic box = (0 0 0) to (10.863786 10.863786 10.863786) with tilt (0 0 0)
  4 by 4 by 6 MPI processor grid
  reading atoms ...
  108 atoms
  read_data CPU = 0.052 seconds

# ---------- 势函数 ----------
pair_style      eam/alloy
pair_coeff      * * Cu_mishin1.eam.alloy Cu
Reading eam/alloy potential file Cu_mishin1.eam.alloy with DATE: 2007-10-12
mass            1 63.546

# ---------- 邻居表 ----------
neighbor        2.0 bin
neigh_modify    delay 0 every 1 check yes

# ---------- (可选) 缺陷分析，用于 OVITO ----------
compute         csp  all centro/atom 12
compute         cna  all cna/atom 3.3

# ---------- 应力 (单位 GPa，拉伸为正) ----------
# pxx/pyy/pzz 为正表示压缩，取负号得到“拉伸为正”的应力
# pxx, pyy, pzz 单位 bar，1 bar = 1e-4 GPa
variable        sigma_xx equal -pxx*1.0e-4
variable        sigma_yy equal -pyy*1.0e-4
variable        sigma_zz equal -pzz*1.0e-4

# ---------- 初始平衡 ----------
timestep        0.002                # 2 fs

velocity        all create 300.0 12345 mom yes rot yes dist gaussian

thermo          100
thermo_style    custom step time temp pe ke etotal press

# 300 K, 0 bar, 各向同性 NPT 预平衡
fix             feq  all npt temp 300 300 0.1 x 0 0 1.0 y 0 0 1.0 z 0 0 1.0
run             20000               # 40 ps
Neighbor list info ...
  update: every = 1 steps, delay = 0 steps, check = yes
  max neighbors/atom: 2000, page size: 100000
  master list distance cutoff = 7.50679
  ghost atom cutoff = 7.50679
  binsize = 3.753395, bins = 3 3 3
  3 neighbor lists, perpetual/occasional/extra = 1 2 0
  (1) pair eam/alloy, perpetual
      attributes: half, newton on
      pair build: half/bin/atomonly/newton/tri
      stencil: half/bin/3d/tri
      bin: standard
  (2) compute centro/atom, occasional
      attributes: full, newton on
      pair build: full/bin/atomonly
      stencil: full/bin/3d
      bin: standard
  (3) compute cna/atom, occasional
      attributes: full, newton on
      pair build: full/bin/atomonly
      stencil: full/bin/3d
      bin: standard
WARNING: Proc sub-domain size < neighbor skin, could lead to lost atoms (src/domain.cpp:1204)
Per MPI rank memory allocation (min/avg/max) = 4.512 | 4.512 | 4.512 Mbytes
   Step          Time           Temp          PotEng         KinEng         TotEng         Press     
         0   0              300           -382.32837      4.1492507     -378.17912     -3777.666     
       100   0.2            204.52513     -379.61598      2.8287535     -376.78723      4403.6995    
       200   0.4            297.02952     -378.46797      4.1081664     -374.3598       1940.2007    
       300   0.6            332.92222     -377.81543      4.6045924     -373.21084      1347.8293    
       400   0.8            290.00748     -378.17427      4.0110458     -374.16323     -2160.7448    
       500   1              252.46036     -377.88081      3.4917376     -374.38907     -3999.5851    
       600   1.2            340.3087      -378.15295      4.7067537     -373.44619     -13280.875    
       700   1.4            279.64506     -377.68177      3.8677249     -373.81405     -10142.023    
       800   1.6            285.92175     -378.46574      3.9545367     -374.5112      -8981.2721    
       900   1.8            292.94982     -377.9406       4.0517407     -373.88886      129.8547     
      1000   2              324.12849     -378.19224      4.4829678     -373.70928      8688.0398    
      1100   2.2            262.77445     -377.76603      3.6343902     -374.13164      19638.951    
      1200   2.4            279.38601     -378.51681      3.864142      -374.65267      17869.075    
      1300   2.6            285.18318     -377.84406      3.9443216     -373.89974      13000.859    
      1400   2.8            281.51517     -377.433        3.89359       -373.53941      2469.9356    
      1500   3              248.22053     -378.10892      3.4330973     -374.67582     -6804.0376    
      1600   3.2            307.56264     -378.24932      4.2538482     -373.99547     -14405.522    
      1700   3.4            264.76131     -377.47456      3.6618702     -373.81269     -9448.9169    
      1800   3.6            315.92569     -378.36246      4.3695162     -373.99294     -7754.1273    
      1900   3.8            312.58699     -378.29264      4.3233392     -373.9693      -821.04277    
      2000   4              294.27687     -377.9682       4.070095      -373.8981       5368.0274    
      2100   4.2            350.70485     -378.75206      4.8505411     -373.90152      5093.1822    
      2200   4.4            315.05703     -378.51121      4.3575019     -374.15371      7892.0865    
      2300   4.6            298.43028     -377.87163      4.1275401     -373.74409      8751.3257    
      2400   4.8            343.34225     -378.04393      4.7487103     -373.29522      3734.756     
      2500   5              301.83044     -378.5522       4.1745671     -374.37764     -1673.7576    
      2600   5.2            312.0204      -377.89909      4.3155029     -373.58359     -8608.0654    
      2700   5.4            330.86118     -378.03732      4.5760865     -373.46123     -15347.859    
      2800   5.6            301.53938     -378.09608      4.1705416     -373.92554     -14562.808    
      2900   5.8            289.04809     -378.28327      3.9977765     -374.28549     -9497.5724    
      3000   6              326.35314     -377.85063      4.5137366     -373.33689     -1093.1794    
      3100   6.2            309.25831     -378.18205      4.2773009     -373.90475      7912.8669    
      3200   6.4            303.77375     -378.35009      4.2014448     -374.14865      11782.596    
      3300   6.6            334.7466      -377.85174      4.6298252     -373.22191      11348.118    
      3400   6.8            276.95816     -378.29703      3.8305627     -374.46647      9042.428     
      3500   7              305.02633     -378.48132      4.2187689     -374.26255      3166.2539    
      3600   7.2            315.94197     -377.89747      4.3697415     -373.52773      726.14895    
      3700   7.4            267.2004      -378.25412      3.6956048     -374.55851     -1253.2553    
      3800   7.6            277.2037      -378.1644       3.8339588     -374.33044     -3893.3015    
      3900   7.8            301.22477     -377.89295      4.1661902     -373.72676     -5239.041     
      4000   8              294.0723      -378.19044      4.0672657     -374.12317     -6461.5069    
      4100   8.2            269.24711     -378.62737      3.7239125     -374.90346     -5077.5709    
      4200   8.4            308.47542     -378.06657      4.2664728     -373.8001      -2166.7277    
      4300   8.6            321.288       -378.37682      4.4436815     -373.93314      2403.1518    
      4400   8.8            292.13366     -378.85889      4.0404525     -374.81844      7693.0038    
      4500   9              321.96728     -378.51168      4.4530765     -374.05861      10318.525    
      4600   9.2            316.91515     -377.94829      4.3832013     -373.56509      9436.8971    
      4700   9.4            264.01574     -378.05437      3.6515583     -374.40281      6040.8729    
      4800   9.6            280.63132     -378.25579      3.8813657     -374.37442     -1871.0664    
      4900   9.8            302.55334     -377.81529      4.1845655     -373.63072     -7108.0497    
      5000   10             280.51204     -378.17194      3.8797159     -374.29222     -8010.085     
      5100   10.2           287.2637      -378.20864      3.973097      -374.23554     -4779.9902    
      5200   10.4           314.36495     -377.67933      4.3479299     -373.3314       578.2741     
      5300   10.6           305.0265      -378.47549      4.2187713     -374.25672      3860.264     
      5400   10.8           309.73571     -378.3013       4.2839037     -374.0174       6727.6107    
      5500   11             327.96483     -378.08501      4.5360277     -373.54898      7070.0619    
      5600   11.2           373.26495     -377.8531       5.1625661     -372.69054      3706.7168    
      5700   11.4           329.59514     -378.58564      4.5585762     -374.02707      1135.2045    
      5800   11.6           321.36442     -378.4941       4.4447385     -374.04936     -3258.9516    
      5900   11.8           328.27399     -377.61816      4.5403035     -373.07786     -4780.1617    
      6000   12             329.92129     -378.44383      4.563087      -373.88075     -7673.1818    
      6100   12.2           287.1237      -377.99055      3.9711607     -374.01939     -5036.5147    
      6200   12.4           315.7379      -377.49568      4.3669189     -373.12876     -2138.3249    
      6300   12.6           298.4795      -377.85912      4.1282209     -373.7309       2582.3197    
      6400   12.8           284.76313     -378.05962      3.938512      -374.12111      6157.0551    
      6500   13             325.85686     -377.7087       4.5068727     -373.20183      8002.1356    
      6600   13.2           351.81359     -378.17944      4.865876      -373.31356      2382.159     
      6700   13.4           276.10695     -378.10994      3.8187898     -374.29115     -758.91741    
      6800   13.6           316.32429     -377.81156      4.3750292     -373.43653     -6759.1402    
      6900   13.8           327.2336      -378.14473      4.5259141     -373.61882     -9780.6498    
      7000   14             292.96243     -378.54753      4.0519152     -374.49561     -6697.6722    
      7100   14.2           309.93845     -377.7529       4.2867078     -373.4662      -1584.036     
      7200   14.4           298.47995     -377.87457      4.1282272     -373.74635      3996.3144    
      7300   14.6           310.00955     -378.32411      4.2876911     -374.03642      6894.3048    
      7400   14.8           322.80804     -377.74424      4.4647049     -373.27954      8222.0239    
      7500   15             330.47339     -377.93917      4.570723      -373.36844      3622.1702    
      7600   15.2           276.41475     -378.01245      3.8230469     -374.1894      -1181.1687    
      7700   15.4           318.5196      -377.91209      4.4053923     -373.5067      -6666.4546    
      7800   15.6           320.12366     -377.58143      4.4275776     -373.15385     -8483.7385    
      7900   15.8           305.40421     -378.21564      4.2239954     -373.99164     -9208.8209    
      8000   16             313.25811     -378.11044      4.3326214     -373.77782     -3971.4683    
      8100   16.2           312.05827     -377.79855      4.3160266     -373.48252      2499.7821    
      8200   16.4           267.4591      -378.20757      3.6991828     -374.50839      9389.5598    
      8300   16.6           290.05359     -377.81153      4.0116835     -373.79984      12251.414    
      8400   16.8           333.87404     -378.10392      4.6177569     -373.48616      8517.6862    
      8500   17             298.46732     -378.32638      4.1280524     -374.19833      2899.0113    
      8600   17.2           280.74272     -378.28162      3.8829063     -374.39871     -4817.2094    
      8700   17.4           319.57791     -377.73904      4.4200295     -373.31901     -11348.007    
      8800   17.6           294.93292     -378.30289      4.0791687     -374.22372     -11813.381    
      8900   17.8           275.58634     -378.12214      3.8115893     -374.31055     -7562.145     
      9000   18             303.79139     -377.92156      4.2016888     -373.71987     -2115.8166    
      9100   18.2           310.42802     -378.12955      4.2934789     -373.83607      2931.7987    
      9200   18.4           303.69707     -378.40619      4.2003842     -374.2058       5154.5351    
      9300   18.6           291.15198     -378.28431      4.0268751     -374.25744      6986.7929    
      9400   18.8           306.00669     -377.65259      4.2323282     -373.42026      6591.2715    
      9500   19             286.98608     -378.43799      3.9692572     -374.46873      3067.7419    
      9600   19.2           292.94264     -378.40379      4.0516415     -374.35214     -1271.1511    
      9700   19.4           318.47117     -378.17496      4.4047223     -373.77024     -5291.7396    
      9800   19.6           320.67366     -378.34073      4.4351846     -373.90555     -8608.7458    
      9900   19.8           289.93584     -378.95569      4.010055      -374.94564     -8830.9157    
     10000   20             313.17559     -378.20048      4.33148       -373.869       -6787.6177    
     10100   20.2           301.0224      -377.93232      4.1633914     -373.76893     -1005.7781    
     10200   20.4           272.15524     -378.07718      3.7641344     -374.31305      5780.3178    
     10300   20.6           300.02469     -378.65501      4.1495921     -374.50542      7668.1368    
     10400   20.8           321.6907      -377.90874      4.4492512     -373.45949      10112.879    
     10500   21             288.00674     -378.2228       3.9833738     -374.23943      7497.0733    
     10600   21.2           270.04461     -378.68596      3.7349427     -374.95102      2819.1338    
     10700   21.4           308.54581     -378.10084      4.2674464     -373.83339     -3132.831     
     10800   21.6           298.44035     -377.83124      4.1276793     -373.70356     -5811.0702    
     10900   21.8           261.54919     -378.41457      3.6174439     -374.79713     -6769.9608    
     11000   22             275.01452     -377.93798      3.8036805     -374.1343      -5060.7126    
     11100   22.2           320.17508     -378.24559      4.4282889     -373.8173      -4231.7777    
     11200   22.4           283.75567     -378.15125      3.924578      -374.22667      285.73096    
     11300   22.6           270.12982     -378.33758      3.736121      -374.60146      3243.2145    
     11400   22.8           298.18198     -377.68097      4.1241059     -373.55687      6410.9822    
     11500   23             311.96788     -378.3314       4.3147764     -374.01663      6194.1693    
     11600   23.2           255.85513     -378.76397      3.5386902     -375.22528      6096.2169    
     11700   23.4           298.28948     -378.32575      4.1255927     -374.20016      1301.9768    
     11800   23.6           308.2156      -377.64386      4.2628793     -373.38098     -1997.1944    
     11900   23.8           279.73115     -378.14829      3.8689155     -374.27938     -4989.6937    
     12000   24             298.24481     -378.38557      4.1249749     -374.2606      -6153.0772    
     12100   24.2           312.96961     -378.18281      4.3286311     -373.85418     -4449.6031    
     12200   24.4           269.22154     -377.71041      3.7235589     -373.98686      1501.9138    
     12300   24.6           303.34684     -378.43942      4.1955403     -374.24388      71.339478    
     12400   24.8           289.30041     -377.76513      4.0012664     -373.76387      3520.2335    
     12500   25             319.13334     -377.73104      4.4138807     -373.31716      3214.9874    
     12600   25.2           292.76924     -378.47012      4.0492432     -374.42088      1690.5521    
     12700   25.4           334.83842     -378.17377      4.6310951     -373.54267     -1060.2845    
     12800   25.6           290.4837      -377.76169      4.0176323     -373.74406     -717.35664    
     12900   25.8           289.83312     -378.62391      4.0086342     -374.61528     -2496.0637    
     13000   26             302.31302     -377.78853      4.1812416     -373.60729     -640.8196     
     13100   26.2           300.97891     -378.20527      4.1627898     -374.04248     -1618.8038    
     13200   26.4           245.21419     -378.49426      3.3915171     -375.10274      1113.5717    
     13300   26.6           275.73975     -378.04755      3.8137111     -374.23384      702.8708     
     13400   26.8           283.76478     -377.43581      3.924704      -373.51111      2667.0056    
     13500   27             288.34799     -378.41792      3.9880936     -374.42982      633.50515    
     13600   27.2           279.50646     -378.35966      3.8658079     -374.49385      2458.438     
     13700   27.4           324.29132     -378.23501      4.4852199     -373.74979      2541.3392    
     13800   27.6           302.23116     -378.00577      4.1801094     -373.82566      5551.5996    
     13900   27.8           259.99726     -378.28195      3.5959793     -374.68598      4169.5501    
     14000   28             313.11694     -378.07459      4.3306688     -373.74392     -1824.8518    
     14100   28.2           314.31294     -378.16712      4.3472105     -373.81991     -5223.3604    
     14200   28.4           251.06913     -378.28124      3.4724958     -374.80874     -3736.2872    
     14300   28.6           313.04407     -378.04535      4.329661      -373.71569     -4794.9384    
     14400   28.8           288.56384     -377.79312      3.9910791     -373.80204     -752.59187    
     14500   29             302.36411     -378.8308       4.1819483     -374.64885      262.19349    
     14600   29.2           288.69425     -377.83165      3.9928827     -373.83877      5189.0542    
     14700   29.4           292.4825      -377.6169       4.0452774     -373.57163      5599.0432    
     14800   29.6           303.31351     -378.67637      4.1950792     -374.48129      995.74625    
     14900   29.8           279.99235     -377.97824      3.8725281     -374.10571     -371.76378    
     15000   30             306.37503     -377.91214      4.2374227     -373.67471     -4991.5715    
     15100   30.2           338.13926     -377.51443      4.6767485     -372.83768     -7106.7873    
     15200   30.4           310.49815     -378.36714      4.2944489     -374.07269     -5421.32      
     15300   30.6           290.89855     -378.10108      4.0233699     -374.07771      1040.4727    
     15400   30.8           345.99025     -377.65389      4.7853343     -372.86855      5213.3799    
     15500   31             330.33734     -378.25354      4.5688415     -373.68469      10467.838    
     15600   31.2           297.94353     -378.26139      4.120808      -374.14058      12171.589    
     15700   31.4           303.39366     -378.08384      4.1961878     -373.88765      8327.6215    
     15800   31.6           330.24443     -377.77519      4.5675564     -373.20763     -1651.8107    
     15900   31.8           285.56034     -378.33574      3.9495381     -374.3862      -9428.5894    
     16000   32             294.88117     -377.97728      4.078453      -373.89882     -13215.203    
     16100   32.2           308.23512     -377.55192      4.2631493     -373.28877     -10449.367    
     16200   32.4           287.3929      -377.50559      3.974884      -373.5307      -2861.8093    
     16300   32.6           294.93612     -378.42453      4.079213      -374.34532      1458.0697    
     16400   32.8           299.5078      -377.56922      4.1424431     -373.42677      6109.9373    
     16500   33             284.70042     -377.41633      3.9376446     -373.47869      6682.33      
     16600   33.2           289.67088     -378.04902      4.0063903     -374.04263      3059.4783    
     16700   33.4           345.4084      -378.52827      4.7772868     -373.75099     -970.75682    
     16800   33.6           342.54947     -377.68496      4.7377454     -372.94722     -114.69793    
     16900   33.8           296.03499     -378.09284      4.0944113     -373.99843      1029.2075    
     17000   34             312.24037     -378.33572      4.3185452     -374.01717     -580.09915    
     17100   34.2           333.98006     -377.71256      4.6192232     -373.09334     -1081.9723    
     17200   34.4           302.29768     -378.4131       4.1810295     -374.23207     -1574.1448    
     17300   34.6           260.39944     -377.71909      3.6015419     -374.11755      297.80579    
     17400   34.8           328.39679     -377.764        4.5420019     -373.222       -3988.0452    
     17500   35             321.96682     -378.12126      4.4530701     -373.66819     -5717.4426    
     17600   35.2           268.35633     -378.12144      3.7115923     -374.40984     -3103.5522    
     17700   35.4           311.86006     -377.51639      4.3132852     -373.20311     -1238.3913    
     17800   35.6           279.29564     -377.38914      3.8628921     -373.52625      4713.1989    
     17900   35.8           298.81202     -378.29709      4.1328199     -374.16427      6607.1505    
     18000   36             328.90096     -377.91641      4.5489751     -373.36743      7576.6246    
     18100   36.2           298.12443     -377.51596      4.12331       -373.39265      7352.4531    
     18200   36.4           280.2064      -377.98058      3.8754887     -374.10509      2243.2831    
     18300   36.6           308.95331     -377.93194      4.2730824     -373.65885     -2582.7599    
     18400   36.8           309.16459     -377.41885      4.2760046     -373.14285     -3657.5478    
     18500   37             322.95415     -378.56875      4.4667258     -374.10202     -7316.536     
     18600   37.2           317.62132     -378.10159      4.3929682     -373.70863     -4163.4664    
     18700   37.4           326.17462     -377.62884      4.5112676     -373.11758     -1356.8788    
     18800   37.6           298.04027     -378.40368      4.1221459     -374.28153      1140.599     
     18900   37.8           286.06796     -377.98026      3.9565589     -374.0237       4101.8221    
     19000   38             300.78268     -377.21528      4.1600758     -373.0552       4985.0736    
     19100   38.2           254.37623     -378.13994      3.5182358     -374.6217       5157.9016    
     19200   38.4           297.40865     -377.79422      4.1134102     -373.68081      905.95007    
     19300   38.6           298.69865     -377.7515       4.1312519     -373.62024     -3477.8769    
     19400   38.8           261.43766     -378.14535      3.6159013     -374.52945     -5673.6638    
     19500   39             340.98142     -377.96347      4.7160579     -373.24742     -9534.5212    
     19600   39.2           275.45263     -377.67534      3.80974       -373.8656      -5404.8535    
     19700   39.4           256.27996     -377.93039      3.544566      -374.38582     -2591.7599    
     19800   39.6           345.54724     -377.83567      4.779207      -373.05646     -3545.7253    
     19900   39.8           288.27265     -377.9388       3.9870517     -373.95175      1467.1859    
     20000   40             282.78891     -378.00535      3.9112069     -374.09414      1916.2238    
Loop time of 2.53906 on 96 procs for 20000 steps with 108 atoms

Performance: 1361.134 ns/day, 0.018 hours/ns, 7876.934 timesteps/s, 850.709 katom-step/s
99.0% CPU use with 96 MPI tasks x 1 OpenMP threads

MPI task timing breakdown:
Section |  min time  |  avg time  |  max time  |%varavg| %total
---------------------------------------------------------------
Pair    | 0.87457    | 0.91835    | 0.98649    |   2.8 | 36.17
Neigh   | 0          | 0          | 0          |   0.0 |  0.00
Comm    | 0.58726    | 0.91813    | 1.1122     |  20.7 | 36.16
Output  | 0.0033782  | 0.0036028  | 0.0064693  |   0.5 |  0.14
Modify  | 0.4359     | 0.63276    | 0.97609    |  27.1 | 24.92
Other   |            | 0.06623    |            |       |  2.61

Nlocal:          1.125 ave           4 max           0 min
Histogram: 36 0 28 0 0 24 0 0 0 8
Nghost:        498.875 ave         500 max         496 min
Histogram: 8 0 0 0 0 24 0 28 0 36
Neighs:          78.75 ave         286 max           0 min
Histogram: 36 0 28 0 19 5 0 0 0 8
FullNghs:            0 ave           0 max           0 min
Histogram: 96 0 0 0 0 0 0 0 0 0

Total # of neighbors = 7560
Ave neighs/atom = 70
Neighbor list builds = 0
Dangerous builds = 0
unfix           feq

# ---------- 定义参考长度和工程应变（z 方向） ----------
variable        Lz0 equal lz
variable        strain equal (lz - ${Lz0})/${Lz0}
variable        strain equal (lz - 10.923347323429)/${Lz0}
variable        strain equal (lz - 10.923347323429)/10.923347323429

# 更新 thermo 输出
thermo_style    custom step time temp pe ke etotal press v_strain v_sigma_xx v_sigma_yy v_sigma_zz

# ---------- z 方向单轴拉伸 ----------
# 真应变率：5e-4 1/ps ≈ 5×10^8 s^-1
variable        erate equal 5.0e-4

# x/y 保持 0 压，z 随盒子变形；couple none 防止各向耦合
fix             fnpt  all npt temp 300 300 0.1 x 0 0 1.0 y 0 0 1.0 couple none

# 对 z 方向施加真应变速率
fix             fdef  all deform 1 z erate ${erate} units box remap x
fix             fdef  all deform 1 z erate 0.0005 units box remap x

# ---------- 输出 ----------
# stress_strain.dat: strain  sigma_xx  sigma_yy  sigma_zz  (单位 GPa)
# 间隔 200 步，既不太稀也不太密
fix             out   all print 200 "${strain} ${sigma_xx} ${sigma_yy} ${sigma_zz}" file stress_strain.dat screen no


# 间隔 500 步输出一帧，可以看到变形全过程
dump            d1 all custom 250 dump_cu_nanocube.lammpstrj id type x y z c_csp c_cna
dump_modify     d1 sort id

# ---------- 变形过程 ----------
# 总时间 = 250000 * 0.002 ps = 500 ps
# 真应变 ≈ erate * 500 ps ≈ 0.25
run             250000
WARNING: Proc sub-domain size < neighbor skin, could lead to lost atoms (src/domain.cpp:1204)
Per MPI rank memory allocation (min/avg/max) = 4.528 | 4.528 | 4.528 Mbytes
   Step          Time           Temp          PotEng         KinEng         TotEng         Press         v_strain      v_sigma_xx     v_sigma_yy     v_sigma_zz  
     20000   40             282.78891     -378.00535      3.9112069     -374.09414      1916.2238     -2.7645433e-15  0.09568121    -0.5930608     -0.077487542  
     20100   40.2           296.02061     -377.6          4.0942123     -373.50579      1207.3237      0.0001        -0.19133265    -0.14271894    -0.028145507  
     20200   40.4           313.45878     -377.68761      4.3353968     -373.35221      63.100787      0.0002        -0.13931282     0.037366708    0.083015872  
     20300   40.6           292.24753     -378.23126      4.0420275     -374.18923     -381.59013      0.0003         0.31851873    -0.29221673     0.088175035  
     20400   40.8           298.89968     -377.6466       4.1340322     -373.51257     -169.1351       0.0004        -0.5651778      0.3821272      0.23379114   
     20500   41             363.72983     -377.95511      5.0306875     -372.92442     -4512.0408      0.0005         0.5348086      0.28816975     0.53063389   
     20600   41.2           286.1742      -378.19841      3.9580283     -374.24038     -3102.8076      0.0006         0.42965169     0.04511435     0.45607625   
     20700   41.4           301.16687     -378.09453      4.1653895     -373.92914     -1458.5685      0.0007        -0.45405043     0.73357208     0.1580489    
     20800   41.6           327.70403     -377.65154      4.5324205     -373.11912     -2060.6663      0.0008         0.77793164    -0.31500378     0.15527203   
     20900   41.8           277.54735     -377.70206      3.8387117     -373.86335      60.844547      0.0009         0.056482016   -0.24304126     0.16830588   
     21000   42             274.33899     -377.83481      3.7943374     -374.04048      1705.1345      0.001         -0.89105636     0.31381746     0.065698543  
     21100   42.2           274.94695     -378.434        3.802746      -374.63126      2899.4951      0.0011         0.33737445    -1.0141069     -0.19311607   
     21200   42.4           302.04675     -377.84396      4.1775589     -373.6664       553.83286      0.0012        -0.42517284     0.1820373      0.076985684  
     21300   42.6           277.67866     -377.57642      3.8405279     -373.7359       2122.4341      0.0013        -0.62611309     0.26178505    -0.2724022    
     21400   42.8           249.64054     -378.24485      3.4527372     -374.79211      951.20715      0.0014         0.5505537     -0.77779658    -0.05811926   
     21500   43             318.10153     -377.83744      4.3996099     -373.43783     -2610.9985      0.0015        -0.090558889    0.61530414     0.25855431   
     21600   43.2           315.24637     -378.37474      4.3601208     -374.01462     -2617.1261      0.0016         0.14064376     0.22780883     0.41668525   
     21700   43.4           256.94259     -377.93037      3.5537307     -374.37664      775.36071      0.0017         0.19509743    -0.54020574     0.11250009   
     21800   43.6           326.51169     -377.79118      4.5159295     -373.27525     -733.56216      0.0018        -0.19827186     0.29510309     0.12323742   
     21900   43.8           303.52657     -378.1708       4.1980261     -373.97278     -1964.8642      0.0019        -0.022323315    0.1079246      0.50385798   
     22000   44             292.39731     -378.13229      4.0440991     -374.08819     -3131.0067      0.002          0.39879763     0.078987363    0.46151701   
     22100   44.2           305.8696      -378.0033       4.2304321     -373.77287     -4004.1107      0.0021         0.17816025     0.40191463     0.62115835   
     22200   44.4           333.47903     -377.53562      4.6122937     -372.92333     -3794.9937      0.0022         0.37231125     0.13908804     0.62709883   
     22300   44.6           289.90675     -378.22841      4.0096526     -374.21875     -2161.1654      0.0023         0.14878475     0.052337355    0.44722752   
     22400   44.8           317.77317     -378.29358      4.3950685     -373.89851     -1530.7555      0.0024        -0.053236247    0.017724435    0.49473846   
     22500   45             353.96379     -377.6977       4.8956149     -372.80209     -2349.3877      0.0025         0.1589726      0.11591654     0.42992718   
     22600   45.2           332.54274     -378.73906      4.599344      -374.13972     -783.82469      0.0026        -0.018320952   -0.11232996     0.36579832   
     22700   45.4           300.99689     -378.17917      4.1630385     -374.01613      1006.067       0.0027        -0.30730716    -0.28434207     0.28982914   
     22800   45.6           362.01902     -378.05392      5.0070255     -373.04689      390.90626      0.0028        -0.1084381     -0.13500786     0.12617408   
     22900   45.8           295.1722      -378.47927      4.0824781     -374.39679      2868.2413      0.0029        -0.20697593    -0.71262737     0.059130927  
     23000   46             297.09717     -377.99778      4.1091021     -373.88867      979.92499      0.003         -0.4549295     -0.10664259     0.26759459   
     23100   46.2           297.16386     -377.63131      4.1100245     -373.52128     -3048.6745      0.0031         0.21882773     0.10291131     0.59286332   
     23200   46.4           271.99305     -378.45633      3.7618912     -374.69444     -4763.1006      0.0032         0.608028      -0.043477752    0.86437993   
     23300   46.6           288.68931     -377.68211      3.9928144     -373.6893      -5791.7464      0.0033         0.29208928     0.83393183     0.6115028    
     23400   46.8           304.38767     -378.01249      4.2099358     -373.80255     -6752.1175      0.0034         0.83751897     0.28202675     0.90608951   
     23500   47             268.85841     -378.82228      3.7185365     -375.10375     -6254.3527      0.0035         0.72129704     0.29757705     0.85743172   
     23600   47.2           290.83001     -378.29641      4.0224221     -374.27399     -4696.9325      0.0036        -0.31679062     1.0478416      0.67802877   
     23700   47.4           319.36401     -377.98126      4.4170711     -373.56419     -987.77617      0.0037         0.50738536    -0.55071388     0.33966137   
     23800   47.6           333.44294     -378.64471      4.6117944     -374.03291      2435.1561      0.0038        -0.38416739    -0.49009254     0.1437131    
     23900   47.8           283.27842     -378.29595      3.9179772     -374.37797      7984.9763      0.0039        -1.4174868     -0.48051112    -0.49749497   
     24000   48             316.46533     -377.81054      4.3769799     -373.43356      7761.0755      0.004         -0.22259185    -1.6743586     -0.43137217   
     24100   48.2           288.856       -377.87578      3.9951198     -373.88066      6091.9683      0.0041        -0.93342206    -0.7084009     -0.18576754   
     24200   48.4           289.3353      -378.65782      4.001749      -374.65607      1117.8727      0.0042        -0.65839402     0.11535028     0.20768194   
     24300   48.6           272.04775     -378.40353      3.7626477     -374.64088      439.14239      0.0043         0.10093898    -0.61319182     0.38051012   
     24400   48.8           304.03571     -377.97285      4.2050679     -373.76779     -1860.1956      0.0044        -0.099647805    0.15541866     0.50228782   
     24500   49             326.12404     -378.16201      4.510568      -373.65144     -3151.9404      0.0045        -0.064931794    0.3770378      0.63347611   
     24600   49.2           238.70286     -377.99488      3.30146       -374.69342     -1376.7335      0.0046         0.30142849    -0.31692306     0.42851463   
     24700   49.4           327.16784     -378.24923      4.5250046     -373.72422     -5528.6502      0.0047         0.23813978     0.48790768     0.9325476    
     24800   49.6           285.93887     -377.89273      3.9547735     -373.93796     -4071.3862      0.0048         0.39336594     0.30186437     0.52618556   
     24900   49.8           260.92015     -378.27532      3.6087437     -374.66658     -3776.2643      0.0049         0.40150798    -0.00018801794  0.73155933   
     25000   50             258.43525     -377.77802      3.5743754     -374.20365      459.3622       0.005         -0.63620316     0.23905674     0.25933776   
     25100   50.2           291.73203     -377.72639      4.0348977     -373.69149      4519.4713      0.0051        -0.54601759    -0.79167342    -0.018150375  
     25200   50.4           275.3983      -378.14998      3.8089886     -374.34099      6211.2015      0.0052        -0.53350375    -0.87494778    -0.45490891   
     25300   50.6           264.89732     -378.1486       3.6637512     -374.48485      6123.0202      0.0053        -0.93457659    -0.49780164    -0.40452782   
     25400   50.8           333.56437     -378.17437      4.6134739     -373.5609       2652.9097      0.0054        -0.30536317    -0.67239905     0.18188931   
     25500   51             266.99309     -377.99453      3.6927375     -374.30179      845.98293      0.0055        -0.037906577   -0.47898577     0.26309747   
     25600   51.2           254.07505     -378.27819      3.5140702     -374.76412     -2254.9182      0.0056        -0.23887416     0.31266608     0.60268354   
     25700   51.4           271.40249     -377.48823      3.7537233     -373.7345      -4854.9505      0.0057         0.59464922     0.16119104     0.70064487   
     25800   51.6           333.5551      -378.21627      4.6133457     -373.60292     -7975.6733      0.0058         0.6427054      0.51629559     1.233701     
     25900   51.8           280.67975     -378.38967      3.8820355     -374.50763     -5577.6866      0.0059         0.23077137     0.81438128     0.62815333   
     26000   52             325.97024     -378.39204      4.5084408     -373.8836      -4722.8202      0.006          0.68184825    -0.075143036    0.81014086   
     26100   52.2           312.21216     -377.75312      4.318155      -373.43497     -1448.1846      0.0061         0.039663042   -0.1273502      0.52214255   
     26200   52.4           303.74321     -378.07738      4.2010224     -373.87636     -710.67504      0.0062        -0.36347493     0.23671065     0.33996679   
     26300   52.6           268.94308     -378.15981      3.7197076     -374.4401       981.8064       0.0063         0.24771413    -0.69448986     0.15223381   
     26400   52.8           357.6671      -378.21282      4.9468349     -373.26599      276.21797      0.0064        -0.24233464    -0.25285533     0.41232457   
     26500   53             298.36908     -377.93046      4.1266937     -373.80377      3980.7904      0.0065        -0.87657886    -0.21946629    -0.098191966  
     26600   53.2           305.52119     -378.26974      4.2256134     -374.04413      4399.748       0.0066        -0.18848561    -1.0301841     -0.10125468   
     26700   53.4           314.77532     -377.94283      4.3536057     -373.58922      4494.7134      0.0067        -0.88806948    -0.56797323     0.1076287    
     26800   53.6           311.37045     -377.86998      4.3065134     -373.56347      1437.0063      0.0068        -0.53809692    -0.03907101     0.14606605   
     26900   53.8           272.14993     -378.22666      3.764061      -374.4626      -2227.4597      0.0069         0.48609192    -0.48994125     0.67208723   
     27000   54             306.75605     -378.05381      4.2426924     -373.81112     -6907.1056      0.007          0.10019391     1.0345751      0.93736261   
     27100   54.2           322.49203     -378.20904      4.4603342     -373.7487      -12002.462      0.0071         1.018614       1.0603859      1.5217386    
     27200   54.4           287.77475     -378.07194      3.9801653     -374.09177     -11552.21       0.0072         1.6322129      0.4337312      1.3997188    
     27300   54.6           275.11256     -378.33327      3.8050365     -374.52823     -8508.789       0.0073         0.34026392     1.1242337      1.088139     
     27400   54.8           318.1255      -377.8755       4.3999415     -373.47556     -5866.407       0.0074         0.46858359     0.26247184     1.0288667    
     27500   55             322.58666     -378.46017      4.461643      -373.99853     -3369.0482      0.0075         0.50248144    -0.37623114     0.88446415   
     27600   55.2           234.0361      -378.32017      3.2369149     -375.08325      55.234072      0.0076        -0.74065404     0.14349738     0.58058643   
     27700   55.4           320.49595     -378.5634       4.4327267     -374.13067     -1612.074       0.0077        -0.13382702    -0.19555739     0.81300662   
     27800   55.6           341.14107     -378.09599      4.718266      -373.37772     -112.09745      0.0078        -0.19511474    -0.39328979     0.62203376   
     27900   55.8           294.00831     -378.31944      4.0663805     -374.25306      1507.2655      0.0079        -0.52119575    -0.35113241     0.42014852   
     28000   56             301.19115     -378.27695      4.1657253     -374.11123      940.28351      0.008         -0.40280523    -0.24718232     0.36790249   
     28100   56.2           335.91128     -377.95952      4.6459336     -373.31358     -1746.4877      0.0081         0.27739554    -0.34089869     0.58744946   
     28200   56.4           304.31617     -378.48732      4.2089468     -374.27837     -3741.3553      0.0082        -0.071283219    0.32275832     0.8709315    
     28300   56.6           309.26415     -377.93057      4.2773816     -373.65319     -6724.8235      0.0083         0.5375156      0.32714696     1.1527845    
     28400   56.8           334.65572     -378.01484      4.6285682     -373.38627     -6217.5841      0.0084         0.50445719     0.37725013     0.9835679    
     28500   57             269.65298     -377.77514      3.729526      -374.04562     -6168.5088      0.0085         0.29192551     0.47032991     1.0882972    
     28600   57.2           270.88517     -377.66643      3.7465682     -373.91987     -4854.6365      0.0086         0.27406464     0.18828439     0.99404192   
     28700   57.4           344.57177     -377.96382      4.7657154     -373.1981      -9004.8687      0.0087         0.96499572     0.51735147     1.2191134    
     28800   57.6           271.17569     -377.91228      3.7505863     -374.1617      -4582.867       0.0088        -0.05748412     0.50148928     0.93085494   
     28900   57.8           302.60174     -378.26166      4.1852349     -374.07642     -4275.9358      0.0089         0.44410225    -0.12278505     0.96146353   
     29000   58             346.44012     -378.00394      4.7915564     -373.21238     -2997.6598      0.009          0.055536821    0.070217828    0.77354329   
     29100   58.2           337.64346     -377.3623       4.6698912     -372.69241      35.413816      0.0091        -0.60548816    -0.039455972    0.63431999   
     29200   58.4           306.28522     -378.17734      4.2361805     -373.94116      1034.0655      0.0092        -0.1672357     -0.73627299     0.59328904   
     29300   58.6           316.4178      -378.60294      4.3763226     -374.22662     -376.81195      0.0093        -0.21185547    -0.44918374     0.77408279   
     29400   58.8           313.67082     -377.38604      4.3383296     -373.04771      722.54452      0.0094        -0.7786457      0.015264458    0.54661788   
     29500   59             325.29612     -378.20165      4.4991171     -373.70253     -1250.9696      0.0095         0.46257968    -0.62394329     0.5366545    
     29600   59.2           303.52852     -378.15173      4.198053      -373.95368     -3752.2449      0.0096         0.10303588     0.08473554     0.93790205   
     29700   59.4           317.58425     -377.75601      4.3924555     -373.36356     -3029.6391      0.0097        -0.3412164      0.61785924     0.63224889   
     29800   59.6           308.55188     -377.81477      4.2675303     -373.54724     -3760.354       0.0098         0.81812982    -0.21724096     0.52721735   
     29900   59.8           284.47932     -378.16386      3.9345867     -374.22927     -6355.3382      0.0099         0.28658891     0.34924296     1.2707696    
     30000   60             326.51798     -377.51099      4.5160165     -372.99497     -5678.3569      0.01          -0.18039434     0.87069211     1.0132093    
     30100   60.2           319.00988     -377.6567       4.4121732     -373.24453     -4904.9875      0.0101         0.78316745    -0.11020816     0.79853694   
     30200   60.4           319.14382     -378.54413      4.4140256     -374.13011     -7058.3635      0.0102         0.38475288     0.67133488     1.0614213    
     30300   60.6           301.75022     -377.94978      4.1734576     -373.77633     -4444.5035      0.0103         0.0063641397   0.39848556     0.92850134   
     30400   60.8           345.34321     -377.91208      4.7763852     -373.1357      -4825.7346      0.0104         0.88975379    -0.077157911    0.63512451   
     30500   61             302.31189     -378.25186      4.181226      -374.07064     -2778.4628      0.0105        -0.1996014      0.31102819     0.72211205   
     30600   61.2           308.41931     -377.98695      4.2656968     -373.72126     -1832.1401      0.0106        -0.1100674      0.1756154      0.48409403   
     30700   61.4           325.64914     -377.45963      4.5039997     -372.95563     -1880.4551      0.0107         0.35526715    -0.23260942     0.44147881   
     30800   61.6           265.87608     -377.97405      3.6772883     -374.29677     -1469.4457      0.0108        -0.23549277     0.073949466    0.60237701   
     30900   61.8           294.90454     -377.56564      4.0787762     -373.48687     -181.91476      0.0109        -0.10230722    -0.15895451     0.31583616   
     31000   62             313.19937     -378.18332      4.331809      -373.85151     -1248.015       0.011         -0.20223994    -0.050638045    0.62728248   
     31100   62.2           296.10742     -378.47428      4.0954131     -374.37886     -809.45611      0.0111        -0.14171913    -0.18032023     0.56487619   
     31200   62.4           318.65523     -377.98804      4.4072681     -373.58077     -725.17746      0.0112        -0.16425446    -0.23559362     0.61740132   
     31300   62.6           331.55998     -378.28869      4.5857516     -373.70294     -448.11181      0.0113         0.11572653    -0.49547828     0.51418529   
     31400   62.8           286.36241     -378.23729      3.9606314     -374.27665     -1330.6417      0.0114        -0.2759961      0.043735533    0.63145308   
     31500   63             315.61918     -378.33913      4.3652769     -373.97385     -2773.0478      0.0115         0.1578096     -0.026799313    0.70090405   
     31600   63.2           319.73409     -377.69864      4.4221895     -373.27646     -1408.0834      0.0116        -0.052121247   -0.2693502      0.74389647   
     31700   63.4           289.87658     -378.43839      4.0092353     -374.42915     -2006.693       0.0117         0.0083205811  -0.22488126     0.81856857   
     31800   63.6           270.35262     -377.8438       3.7392026     -374.1046      -1699.8495      0.0118        -0.24286635     0.10900699     0.64381422   
     31900   63.8           305.96609     -377.95323      4.2317667     -373.72147     -2797.3702      0.0119         0.18581368    -0.14229938     0.79569678   
     32000   64             283.68007     -378.21946      3.9235324     -374.29593     -3630.8794      0.012          0.11394226     0.2138637      0.76145785   
     32100   64.2           270.31187     -378.33626      3.738639      -374.59762     -4125.7056      0.0121         0.01386571     0.31447635     0.90936961   
     32200   64.4           300.60242     -377.86099      4.1575826     -373.70341     -2722.6399      0.0122         0.33436397    -0.21079462     0.69322263   
     32300   64.6           282.0922      -377.765        3.9015709     -373.86343     -1489.6083      0.0123        -0.18084        0.1026607      0.52506178   
     32400   64.8           281.49519     -378.57698      3.8933136     -374.68367     -1132.0068      0.0124        -0.48622245     0.011569905    0.81425459   
     32500   65             299.35212     -377.77376      4.14029       -373.63347      782.63876      0.0125         0.14176615    -0.71703934     0.34048156   
     32600   65.2           287.57585     -377.84062      3.9774142     -373.86321     -834.15003      0.0126        -0.6122565      0.27068951     0.591812     
     32700   65.4           265.27628     -378.26516      3.6689926     -374.59617     -2617.9828      0.0127        -0.41605795     0.25187087     0.94958194   
     32800   65.6           314.03966     -377.94642      4.3434309     -373.60299     -3573.6109      0.0128         0.98372633    -0.80030213     0.88865906   
     32900   65.8           277.82371     -377.36097      3.842534      -373.51844     -1391.5713      0.0129        -0.56047883     0.44349149     0.53445873   
     33000   66             276.10445     -378.44538      3.8187552     -374.62662     -4190.0629      0.013         -0.18448661     0.41170997     1.0297955    
     33100   66.2           308.32594     -377.54531      4.2644053     -373.28091     -3028.6986      0.0131         0.70426941    -0.49631183     0.70065199   
     33200   66.4           327.90898     -378.31657      4.5352551     -373.78131     -4827.0904      0.0132        -0.17943455     0.60860713     1.0189545    
     33300   66.6           275.85393     -378.12031      3.8152904     -374.30502     -2671.5289      0.0133        -0.31119686     0.26866656     0.84398896   
     33400   66.8           341.78919     -377.83684      4.7272301     -373.10961     -5383.2025      0.0134         0.7262623     -0.055331201    0.94402965   
     33500   67             318.63111     -378.17762      4.4069345     -373.77068     -4523.7439      0.0135        -0.079457836    0.27105786     1.1655231    
     33600   67.2           265.98438     -377.95677      3.6787862     -374.27799     -2286.1422      0.0136        -0.24315864     0.13637402     0.79262726   
     33700   67.4           307.93731     -377.50381      4.2590302     -373.24478     -1662.7815      0.0137         0.18074616    -0.43719802     0.7552863    
     33800   67.6           292.87183     -377.89771      4.0506622     -373.84705     -2160.55        0.0138        -0.16965604     0.089844456    0.72797658   
     33900   67.8           276.81847     -378.05181      3.8286307     -374.22318     -248.30534      0.0139        -0.47139042    -0.11167306     0.65755507   
     34000   68             326.37432     -378.23316      4.5140295     -373.71913      602.46772      0.014         -0.083118763   -0.55598022     0.45835866   
     34100   68.2           307.36157     -377.98581      4.2510674     -373.73474      962.11717      0.0141        -0.7900447     -0.075261747    0.5766713    
     34200   68.4           307.93573     -378.11092      4.2590084     -373.85191      392.33151      0.0142        -0.7192851     -0.10939506     0.71098071   
     34300   68.6           288.91687     -377.78393      3.9959616     -373.78797     -187.56696      0.0143         0.025344684   -0.77692274     0.80784814   
     34400   68.8           299.2784      -377.94954      4.1392703     -373.81027     -2857.4947      0.0144        -0.35455007     0.17682633     1.0349722    
     34500   69             282.91176     -378.19811      3.912906      -374.28521     -3317.8399      0.0145        -0.14484005     0.09540206     1.04479      
     34600   69.2           265.74923     -377.95573      3.6755339     -374.2802      -5786.0913      0.0146         0.85995686    -0.23127478     1.1071453    
     34700   69.4           316.50366     -377.76252      4.37751       -373.38501     -8927.504       0.0147         0.31293515     0.87921115     1.4861049    
     34800   69.6           267.16063     -377.93251      3.6950547     -374.23745     -9644.8645      0.0148         0.18681186     1.2642655      1.442382     
     34900   69.8           274.2301      -378.1136       3.7928314     -374.32077     -7102.0688      0.0149         1.4086294     -0.3907243      1.1127155    
     35000   70             297.70534     -377.84944      4.1175135     -373.73192     -5484.9075      0.015         -0.097835242    0.54596246     1.197345     
     35100   70.2           279.47314     -377.31571      3.8653471     -373.45036     -1861.4489      0.0151        -0.59425153     0.30895078     0.84373542   
     35200   70.4           286.01266     -378.50799      3.955794      -374.5522      -2089.518       0.0152         0.27533468    -0.55281704     0.90433777   
     35300   70.6           297.04869     -377.79759      4.1084315     -373.68916     -370.60317      0.0153        -0.32648003    -0.27681895     0.71447994   
     35400   70.8           322.16413     -378.13733      4.4557991     -373.68153      909.26138      0.0154        -0.58059266    -0.032966493    0.34078074   
     35500   71             258.94082     -377.60514      3.581368      -374.02377      3926.3662      0.0155        -0.43194778    -1.095784       0.34982194   
     35600   71.2           250.40432     -378.55324      3.4633009     -375.08994      1213.6987      0.0156        -0.61658585    -0.44425798     0.6967342    
     35700   71.4           295.4299      -378.00751      4.0860424     -373.92146     -1154.0276      0.0157        -0.3539933      0.033149294    0.66705227   
     35800   71.6           302.3012      -377.65403      4.1810782     -373.47295     -3468.6816      0.0158         0.28458466    -0.17489855     0.93091838   
     35900   71.8           303.26572     -378.05724      4.1944182     -373.86282     -7083.2568      0.0159         0.3383376      0.36543145     1.421208     
     36000   72             287.5049      -378.35482      3.976433      -374.37838     -11780.152      0.016          0.43465535     1.0568882      2.0425022    
     36100   72.2           303.75038     -377.47793      4.2011216     -373.27681     -13132.429      0.0161         1.0815765      0.71275765     2.1453947    
     36200   72.4           304.14367     -378.08381      4.2065611     -373.87725     -13328.446      0.0162         1.2144668      0.65303374     2.1310334    
     36300   72.6           285.37263     -378.37477      3.946942      -374.42783     -11813.054      0.0163         0.52566239     1.1745465      1.8437073    
     36400   72.8           303.19526     -377.90447      4.1934438     -373.71102     -10207.141      0.0164         0.79862002     0.46685418     1.796668     
     36500   73             281.29186     -377.21891      3.8905014     -373.32841     -4135.2652      0.0165         0.17311685    -0.16014223     1.2276049    
     36600   73.2           261.24717     -378.00038      3.6132667     -374.38711      1231.2084      0.0166        -0.91686341    -0.3507298      0.8982307    
     36700   73.4           275.93836     -377.67938      3.816458      -373.86292      7714.851       0.0167        -1.5104886     -1.2089911      0.40502433   
     36800   73.6           299.58947     -377.51228      4.1435727     -373.3687       10971.89       0.0168        -1.1403802     -1.9055106     -0.24567628   
     36900   73.8           291.18087     -378.52513      4.0272747     -374.49786      10273.239      0.0169        -1.8374416     -1.369332       0.12480188   
     37000   74             307.14448     -378.02726      4.2480648     -373.77919      6124.961       0.017         -1.0295355     -1.1342068      0.32625403   
     37100   74.2           322.40939     -378.03914      4.4591912     -373.57995      1426.2402      0.0171        -0.44949294    -0.77721895     0.79883983   
     37200   74.4           279.68702     -378.29575      3.8683051     -374.42745     -3396.3893      0.0172        -0.078742137    0.076640838    1.0210181    
     37300   74.6           302.88881     -378.08006      4.1892053     -373.89085     -7990.6246      0.0173         0.61435114     0.34776954     1.4350667    
     37400   74.8           307.00109     -377.7353       4.2460816     -373.48922     -10691.482      0.0174         0.58706657     0.65376669     1.9666115    
     37500   75             261.28257     -377.95162      3.6137562     -374.33786     -9243.3493      0.0175         0.35136452     0.64478795     1.7768523    
     37600   75.2           259.70993     -378.11095      3.5920053     -374.51895     -6722.434       0.0176         0.084145402    0.20232498     1.7302598    
     37700   75.4           287.48098     -377.46582      3.9761022     -373.48971     -5906.8475      0.0177         0.16733989     0.25041164     1.3543027    
     37800   75.6           295.55074     -377.90492      4.0877137     -373.81721     -6611.7203      0.0178         0.18899671     0.2545733      1.5399461    
     37900   75.8           285.06426     -378.27526      3.9426769     -374.33259     -4775.2438      0.0179        -0.034126433   -0.072086683    1.5387863    
     38000   76             284.14013     -377.62304      3.9298953     -373.69314      120.09523      0.018         -0.5177664     -0.52916281     1.0109006    
     38100   76.2           314.22378     -378.0866       4.3459775     -373.74062      1908.3932      0.0181        -0.76048629    -0.88412251     1.0720908    
     38200   76.4           265.41628     -378.10705      3.6709289     -374.43612      3241.913       0.0182        -0.9227296     -0.76078426     0.71093995   
     38300   76.6           318.7285      -378.3735       4.4082815     -373.96522     -806.43647      0.0183        -0.53880297    -0.54142381     1.3221577    
     38400   76.8           333.28504     -378.04031      4.6096105     -373.4307      -1305.6706      0.0184        -0.51959813    -0.20637927     1.1176786    
     38500   77             292.24132     -378.47726      4.0419417     -374.43532     -2020.4153      0.0185        -0.50900249    -0.10611837     1.2212454    
     38600   77.2           292.10948     -378.08362      4.0401182     -374.0435      -5625.2677      0.0186         0.17344884    -0.13614971     1.6502812    
     38700   77.4           282.6385      -377.35084      3.9091265     -373.44172     -8610.9961      0.0187         0.36560352     0.33544663     1.8822487    
     38800   77.6           281.04582     -378.00716      3.8870985     -374.12006     -15191.129      0.0188         0.89915045     1.003243       2.6549452    
     38900   77.8           304.02764     -377.9654       4.2049563     -373.76044     -17450.718      0.0189         1.6958516      1.0923872      2.4469767    
     39000   78             287.8705      -377.32062      3.9814896     -373.33913     -15427.453      0.019          0.99509958     1.2399795      2.3931568    
     39100   78.2           261.22299     -378.03024      3.6129322     -374.41731     -12849.057      0.0191         0.63557266     1.0710211      2.1481233    
     39200   78.4           275.50505     -377.86041      3.8104651     -374.04994     -7574.6968      0.0192         0.36033359     0.097148268    1.8149272    
     39300   78.6           319.81221     -377.81008      4.42327       -373.38681     -2902.0103      0.0193        -0.33692659    -0.095094902    1.3026246    
     39400   78.8           328.21831     -377.77137      4.5395334     -373.23184      2001.3184      0.0194        -0.98149517    -0.39705557     0.77815523   
     39500   79             319.51864     -378.62368      4.4192098     -374.20447      4700.7241      0.0195        -0.84831916    -1.2873609      0.72546287   
     39600   79.2           328.15412     -377.91355      4.5386456     -373.3749       7117.5118      0.0196        -1.1365032     -1.3553969      0.35664653   
     39700   79.4           303.2817      -377.71044      4.1946393     -373.5158       7662.0874      0.0197        -1.5169914     -1.1818142      0.40017944   
     39800   79.6           279.46688     -377.87547      3.8652604     -374.01021      3852.1136      0.0198        -0.98125748    -1.0855216      0.91114497   
     39900   79.8           286.45338     -377.96727      3.9618896     -374.00538      487.58795      0.0199        -0.48824974    -0.56753755     0.9095109    
     40000   80             334.95874     -377.85121      4.6327592     -373.21845     -8006.1626      0.02           0.21513411     0.4568575      1.7298572    
     40100   80.2           281.19556     -377.92625      3.8891695     -374.03708     -10680.396      0.0201         0.48766298     0.59109034     2.1253654    
     40200   80.4           275.65736     -378.04483      3.8125717     -374.23225     -11184.662      0.0202         0.67187403     0.70325445     1.9802701    
     40300   80.6           318.35196     -378.05764      4.4030736     -373.65457     -12464.537      0.0203         0.65813095     0.85645449     2.2247757    
     40400   80.8           308.66363     -377.9785       4.2690759     -373.70943     -11465.032      0.0204         0.53845489     0.7387157      2.1623389    
     40500   81             268.09255     -378.34391      3.707944      -374.63597     -10459.3        0.0205         0.49136522     0.60918734     2.0372373    
     40600   81.2           317.76181     -377.98465      4.3949113     -373.58974     -9504.2396      0.0206         0.46886972     0.46426365     1.9181385    
     40700   81.4           301.10409     -377.76992      4.1645211     -373.6054      -5858.0194      0.0207         0.050240325    0.077093642    1.6300718    
     40800   81.6           289.42035     -378.63374      4.0029252     -374.63082     -4829.6778      0.0208         0.083076029   -0.20301234     1.5688397    
     40900   81.8           287.8899      -377.68377      3.9817578     -373.70201     -1929.1267      0.0209        -0.42641688    -0.35154257     1.3566975    
     41000   82             328.40295     -377.92323      4.5420872     -373.38114     -3258.6258      0.021         -0.31609885    -0.2431317      1.5368183    
     41100   82.2           259.91626     -377.90635      3.594859      -374.31149     -828.40314      0.0211        -0.60280978    -0.36544816     1.2167789    
     41200   82.4           312.12172     -377.79322      4.3169042     -373.47632     -2022.9127      0.0212        -0.47799143    -0.3573977      1.4422629    
     41300   82.6           311.20368     -377.69112      4.3042069     -373.38691     -1674.0801      0.0213        -0.40830581    -0.46901684     1.3795467    
     41400   82.8           302.5053      -378.26494      4.183901      -374.08104     -1379.3893      0.0214        -0.44233105    -0.50485049     1.3609983    
     41500   83             301.0972      -377.97001      4.1644259     -373.80558     -1810.6377      0.0215        -0.36280829    -0.26805762     1.1740572    
     41600   83.2           325.53158     -378.19095      4.5023737     -373.68858     -7984.3409      0.0216         0.31744859     0.27272566     1.805128     
     41700   83.4           305.28402     -377.33373      4.2223331     -373.1114      -13261.875      0.0217         0.69789494     1.0724275      2.2082402    
     41800   83.6           294.02621     -377.58086      4.0666281     -373.51424     -19181.265      0.0218         1.4573221      1.5531787      2.7438786    
     41900   83.8           242.15683     -377.39121      3.3492312     -374.04198     -21359.494      0.0219         1.8417164      1.647432       2.9186998    
     42000   84             303.69589     -377.38546      4.2003679     -373.1851      -22301.847      0.022          1.7549419      1.8471731      3.0884392    
     42100   84.2           311.43104     -376.57215      4.3073515     -372.2648      -19114.239      0.0221         1.4194466      1.7374681      2.577357     
     42200   84.4           292.62045     -377.6312       4.0471853     -373.58402     -14068.024      0.0222         1.0499539      0.85240447     2.3180486    
     42300   84.6           264.16432     -377.79074      3.6536133     -374.13712     -7890.3595      0.0223         0.34508996     0.14715249     1.8748654    
     42400   84.8           293.41412     -377.17619      4.0581624     -373.11802     -1297.8047      0.0224        -0.45846726    -0.15339587     1.0012045    
     42500   85             322.21365     -377.83134      4.456484      -373.37486      1580.9068      0.0225        -0.63230367    -0.93478099     1.0928126    
     42600   85.2           303.02082     -377.98801      4.1910311     -373.79698      2590.5433      0.0226        -0.74893849    -1.0516221      1.0233976    
     42700   85.4           307.06922     -377.84875      4.2470239     -373.60173      3146.6216      0.0227        -1.2371737     -0.83554428     1.1287315    
     42800   85.6           305.66714     -377.15961      4.2276319     -372.93198      2860.1776      0.0228        -0.92354894    -0.89914428     0.96463993   
     42900   85.8           298.26789     -378.21318      4.1252941     -374.08789     -399.88479      0.0229        -0.50201229    -0.67378649     1.2957642    
     43000   86             300.13365     -377.83709      4.1510991     -373.68599     -3813.657       0.023         -0.26375475    -0.058263064    1.4661149    
     43100   86.2           346.78913     -377.05836      4.7963834     -372.26198     -7252.8765      0.0231         0.17886419     0.13359036     1.8634084    
     43200   86.4           316.46095     -377.55448      4.3769193     -373.17756     -10506.689      0.0232         0.81401178     0.24751269     2.0904821    
     43300   86.6           288.37817     -378.02239      3.988511      -374.03388     -14396.297      0.0233         0.83214646     0.94424715     2.5424956    
     43400   86.8           305.12337     -377.88238      4.2201112     -373.66227     -16567.969      0.0234         1.1347585      1.1883183      2.6473139    
     43500   87             315.14845     -377.55444      4.3587663     -373.19567     -16475.827      0.0235         1.3514072      0.92406842     2.6672725    
     43600   87.2           277.24911     -378.25828      3.8345868     -374.42369     -12866.074      0.0236         0.69168272     0.73346709     2.4346725    
     43700   87.4           312.81525     -377.90746      4.3264963     -373.58096     -11160.447      0.0237         0.31645686     0.62714495     2.4045324    
     43800   87.6           290.39497     -377.48749      4.0164051     -373.47109     -6025.5122      0.0238         0.018316489    0.080136627    1.7092005    
     43900   87.8           259.59143     -378.22116      3.5903664     -374.6308      -4264.379       0.0239        -0.26739052    -0.14378607     1.6904903    
     44000   88             307.10608     -377.87216      4.2475336     -373.62463     -1705.0286      0.024         -0.47959122    -0.35263273     1.3437325    
     44100   88.2           322.38352     -377.95597      4.4588334     -373.49713     -2712.892       0.0241        -0.43427278    -0.41198768     1.660128     
     44200   88.4           256.18478     -378.31149      3.5432496     -374.76824     -264.53339      0.0242        -0.49814742    -0.85351297     1.4310204    
     44300   88.6           294.27426     -377.99559      4.0700589     -373.92553     -2434.0338      0.0243        -0.36287729    -0.37561169     1.4686991    
     44400   88.8           277.47111     -377.3008       3.8376573     -373.46314     -2218.3976      0.0244        -0.3807125     -0.37189027     1.4181221    
     44500   89             325.89544     -377.7133       4.5074063     -373.2059      -7713.7094      0.0245         0.41867889    -0.0030031954   1.8984371    
     44600   89.2           261.40587     -377.83114      3.6154616     -374.21567     -8525.9355      0.0246         0.064716231    0.28009718     2.2129672    
     44700   89.4           284.81878     -377.26061      3.9392817     -373.32133     -11648.542      0.0247         0.49184836     0.82576152     2.1769528    
     44800   89.6           282.43988     -377.15931      3.9063796     -373.25293     -13369.063      0.0248         1.072593       0.60310397     2.3350219    
     44900   89.8           269.71913     -377.65791      3.730441      -373.92746     -16575.829      0.0249         0.95893602     1.1983134      2.8154993    
     45000   90             337.12062     -377.76622      4.6626599     -373.10356     -17493.079      0.025          0.93547769     1.6480424      2.6644036    
     45100   90.2           307.52868     -377.47646      4.2533786     -373.22308     -11667.405      0.0251         0.92691513     0.30072303     2.2725834    
     45200   90.4           302.49274     -378.13556      4.1837273     -373.95183     -7428.9118      0.0252         0.15014187     0.20491656     1.8736151    
     45300   90.6           302.64596     -377.64744      4.1858464     -373.46159     -454.68254      0.0253        -1.0215532     -0.15965382     1.3176118    
     45400   90.8           388.37459     -377.60737      5.371545      -372.23583     -1252.5726      0.0254        -0.34138409    -0.73217297     1.4493288    
     45500   91             299.30947     -377.59221      4.1397        -373.45251      3557.2267      0.0255        -0.93436427    -1.3159639      1.1831601    
     45600   91.2           297.71316     -378.01308      4.1176217     -373.89546      3204.1791      0.0256        -1.348769      -0.67319272     1.060708     
     45700   91.4           321.67253     -377.35176      4.4489998     -372.90276      1538.8243      0.0257        -0.86165723    -0.89422259     1.2942325    
     45800   91.6           300.15558     -377.72276      4.1514024     -373.57136      877.00699      0.0258        -0.47109506    -1.1093108      1.3173037    
     45900   91.8           293.55545     -377.91838      4.0601172     -373.85826     -1882.1729      0.0259        -0.76743101    -0.31968239     1.6517653    
     46000   92             296.80695     -377.33854      4.105088      -373.23345     -4411.4412      0.026         -0.27340287    -0.14072026     1.7375555    
     46100   92.2           350.51472     -377.51854      4.8479114     -372.67063     -9297.3101      0.0261         0.42618354     0.1758762      2.1871333    
     46200   92.4           290.64632     -377.89006      4.0198815     -373.87018     -11245.421      0.0262         0.23875374     0.76958353     2.3652889    
     46300   92.6           309.58589     -377.79163      4.2818316     -373.5098      -11825.364      0.0263         0.44583213     0.76227835     2.3394986    
     46400   92.8           333.84719     -377.42108      4.6173855     -372.8037      -14309.302      0.0264         1.0298294      0.58965265     2.6733086    
     46500   93             286.34767     -378.0796       3.9604276     -374.11917     -12388.575      0.0265         0.60083685     0.58897608     2.5267596    
     46600   93.2           271.14514     -377.09772      3.7501639     -373.34755     -9177.2407      0.0266         0.066748552    0.46825472     2.2181689    
     46700   93.4           310.76497     -377.78011      4.2981392     -373.48197     -9034.6732      0.0267         0.67803407    -0.008739716    2.0411076    
     46800   93.6           282.97841     -378.23933      3.9138279     -374.3255      -6065.7089      0.0268        -0.063615715   -0.30501718     2.1883456    
     46900   93.8           304.86045     -377.5901       4.2164747     -373.37362      949.12416      0.0269        -1.3444878     -0.12628522     1.1860358    
     47000   94             313.91209     -377.82213      4.3416665     -373.48046      7472.3784      0.027         -1.5084389     -1.799027       1.0657524    
     47100   94.2           298.47058     -378.41426      4.1280975     -374.28616      13118.796      0.0271        -1.6926445     -2.7160237      0.47302932   
     47200   94.4           319.56401     -377.52047      4.4198373     -373.10063      11986.6        0.0272        -2.3784688     -1.5057149      0.28820367   
     47300   94.6           336.19796     -378.05195      4.6498986     -373.40205      3747.1347      0.0273        -1.4945918     -0.88055195     1.2510033    
     47400   94.8           277.14723     -377.92087      3.8331778     -374.08769     -958.58551      0.0274        -0.12176042    -1.0587923      1.4681284    
     47500   95             322.85782     -377.22821      4.4653934     -372.76282     -7926.2383      0.0275        -0.05768486     0.24520488     2.1903515    
     47600   95.2           322.52796     -378.04653      4.4608311     -373.5857      -11693.863      0.0276         0.088663487    0.9027709      2.5167245    
     47700   95.4           308.96928     -378.22935      4.2733033     -373.95605     -12953.481      0.0277         0.91651312     0.38974009     2.5797911    
     47800   95.6           300.06098     -376.78672      4.150094      -372.63662     -13527.036      0.0278         0.60779855     0.80227578     2.6480365    
     47900   95.8           290.87338     -377.55291      4.0230219     -373.52989     -13435.915      0.0279         0.42647708     0.95518326     2.6491141    
     48000   96             302.38345     -378.04862      4.1822157     -373.8664      -12501.49       0.028          0.71179465     0.52587978     2.5127724    
     48100   96.2           347.68383     -377.32155      4.8087578     -372.51279     -11095.991      0.0281         0.75904587     0.15637274     2.4133788    
     48200   96.4           287.46234     -377.20489      3.9758443     -373.22905     -6645.4054      0.0282        -0.14328026     0.015016634    2.1218853    
     48300   96.6           301.18499     -377.86908      4.1656401     -373.70344     -5817.5194      0.0283        -0.27725648    -0.22172043     2.2442327    
     48400   96.8           301.87462     -377.81492      4.1751782     -373.63974     -3049.8955      0.0284        -0.11139494    -0.76649369     1.7928573    
     48500   97             332.16205     -377.39977      4.5940786     -372.80569     -2810.1107      0.0285        -0.62098752    -0.34113922     1.8051599    
     48600   97.2           280.9288      -377.83076      3.88548       -373.94528     -949.19266      0.0286        -0.91822959    -0.48344542     1.6864328    
     48700   97.4           284.22818     -377.60257      3.9311132     -373.67145     -468.45143      0.0287        -0.45370722    -0.93349332     1.527736     
     48800   97.6           316.15183     -377.26288      4.372644      -372.89023     -3457.7926      0.0288        -0.29284357    -0.43250629     1.7626876    
     48900   97.8           297.82322     -377.09353      4.119144      -372.97439     -7414.7398      0.0289        -0.29989556     0.38886948     2.135448     
     49000   98             271.14015     -377.6618       3.7500948     -373.9117      -13461.172      0.029          0.51184315     0.70292478     2.8235835    
     49100   98.2           312.61624     -377.56786      4.3237438     -373.24411     -16006.949      0.0291         1.3445643      0.49928327     2.9582371    
     49200   98.4           332.9984      -377.31013      4.605646      -372.70448     -18738.297      0.0292         0.7864106      1.7331214      3.1019573    
     49300   98.6           306.88633     -377.79028      4.2444944     -373.54578     -22252.532      0.0293         1.5227971      1.7421911      3.4107713    
     49400   98.8           317.26535     -377.92742      4.3880448     -373.53938     -21126.154      0.0294         1.9747517      1.0834346      3.2796599    
     49500   99             314.24721     -377.17024      4.3463015     -372.82394     -15595.733      0.0295         0.96066888     0.99531522     2.7227357    
     49600   99.2           270.76809     -377.64092      3.7449489     -373.89597     -12228.876      0.0296         0.21233388     0.77868912     2.6776398    
     49700   99.4           261.92126     -377.37189      3.6225899     -373.7493      -8520.7227      0.0297         0.25462224    -0.036216211    2.3378108    
     49800   99.6           335.1033      -377.57476      4.6347586     -372.94        -10152.675      0.0298         0.49275525     0.094745762    2.4583013    
     49900   99.8           287.35559     -377.46781      3.9743679     -373.49344     -5742.6986      0.0299        -0.47760037     0.12465472     2.0757552    
     50000   100            298.98328     -377.73308      4.1351885     -373.59789     -5168.2591      0.03          -0.34229429    -0.24518066     2.1379527    
     50100   100.2          286.39147     -378.03896      3.9610333     -374.07793     -3758.3072      0.0301        -0.34911557    -0.58147212     2.0580798    
     50200   100.4          303.12794     -377.65829      4.1925127     -373.46578     -1581.2985      0.0302        -0.59542427    -0.63561323     1.705427     
     50300   100.6          341.38883     -377.8132       4.7216928     -373.0915      -3436.3415      0.0303        -0.66690791    -0.22083944     1.9186498    
     50400   100.8          269.32765     -377.5636       3.7250264     -373.83858      890.19064      0.0304        -0.60855818    -1.0037643      1.3452653    
     50500   101            317.22804     -377.83146      4.3875288     -373.44393     -2984.7691      0.0305        -0.49644564    -0.47728488     1.8691612    
     50600   101.2          312.84547     -377.61329      4.3269143     -373.28638     -4641.6284      0.0306        -0.29349797    -0.17124751     1.857234     
     50700   101.4          266.47786     -377.54502      3.6856115     -373.85941     -6519.5835      0.0307        -0.16510988    -0.011254602    2.1322395    
     50800   101.6          263.96493     -377.56744      3.6508555     -373.91658     -8560.8196      0.0308         0.13213861     0.0052843355   2.4308229    
     50900   101.8          301.84089     -377.13261      4.1747118     -372.9579      -11004.37       0.0309         0.27872409     0.458982       2.5636048    
     51000   102            288.33766     -377.95978      3.9879508     -373.97183     -13547.781      0.031          0.64375212     0.54537892     2.8752033    
     51100   102.2          299.97991     -377.90619      4.1489728     -373.75722     -12337.89       0.0311         0.69599409     0.26190738     2.7434654    
     51200   102.4          311.99045     -377.43562      4.3150886     -373.12053     -11553.359      0.0312         0.409047       0.21438303     2.8425778    
     51300   102.6          311.70977     -377.7784       4.3112065     -373.4672      -8353.8389      0.0313         0.0047679491  -0.049764636    2.5511484    
     51400   102.8          296.61218     -377.58643      4.1023943     -373.48403     -6823.3658      0.0314        -0.040566134   -0.16285455     2.2504304    
     51500   103            315.25444     -378.13524      4.3602323     -373.775       -7456.7858      0.0315         0.33229113    -0.39742655     2.3021711    
     51600   103.2          292.70639     -377.64825      4.048374      -373.59987     -6258.9261      0.0316        -0.44378196    -0.12782816     2.4492879    
     51700   103.4          336.95902     -377.37117      4.6604248     -372.71074     -9609.2145      0.0317        -0.080945646    0.37156893     2.5921411    
     51800   103.6          301.46165     -378.04733      4.1694666     -373.87787     -11806.123      0.0318         0.62847185     0.12076125     2.7926039    
     51900   103.8          314.35176     -377.75027      4.3477475     -373.40253     -13518.018      0.0319         0.21785585     0.7195761      3.1179733    
     52000   104            309.76571     -377.30859      4.2843186     -373.02427     -12452.396      0.032          0.011307091    0.97542229     2.7489895    
     52100   104.2          268.44439     -377.96045      3.7128102     -374.24764     -7792.2923      0.0321         0.21954853    -0.45084984     2.568989     
     52200   104.4          339.07709     -377.87512      4.6897195     -373.1854      -5490.0278      0.0322        -0.045097929   -0.61396891     2.3060752    
     52300   104.6          334.72941     -377.90062      4.6295875     -373.27104     -2047.4638      0.0323        -1.034004      -0.32947158     1.9777147    
     52400   104.8          305.72234     -378.39892      4.2283955     -374.17052     -691.15046      0.0324        -0.93859914    -1.008692       2.1546362    
     52500   105            323.27612     -377.68472      4.4711788     -373.21354      13.636966      0.0325        -0.46099738    -1.2871246      1.7440309    
     52600   105.2          316.33667     -377.77564      4.3752005     -373.40044     -3974.0461      0.0326        -0.84707497    -0.30670874     2.3459975    
     52700   105.4          281.74938     -377.88142      3.8968293     -373.98459     -5108.5853      0.0327        -0.59726167    -0.20562333     2.3354606    
     52800   105.6          286.63845     -377.91907      3.9644492     -373.95462     -7875.3534      0.0328         0.091867016   -0.4006274      2.6713664    
     52900   105.8          270.74214     -376.89839      3.7445899     -373.1538      -6564.6687      0.0329        -0.2486145     -0.32115051     2.5391656    
     53000   106            296.82361     -378.02886      4.1053186     -373.92354     -10271.469      0.033         -0.25134321     0.54552173     2.7872621    
     53100   106.2          288.94684     -377.87188      3.9963762     -373.8755      -11221.597      0.0331         0.42132408     0.074038699    2.8711164    
     53200   106.4          326.6977      -377.59626      4.5185022     -373.07776     -12784.158      0.0332         0.62217468     0.16617466     3.0468979    
     53300   106.6          301.26957     -377.98439      4.1668099     -373.81758     -13674.465      0.0333         0.35322961     0.56632319     3.1827867    
[...]
    258700   517.4          303.93994     -376.56613      4.2037433     -372.36239     -11419.423      0.2387         0.32854627    -0.1634097      3.2606903    
    258800   517.6          276.17512     -375.80558      3.8197327     -371.98585     -9809.1946      0.2388        -0.27018724    -0.069324101    3.2822697    
    258900   517.8          288.60714     -375.56531      3.9916779     -371.57363     -9196.4497      0.2389        -0.13276331    -0.3098236      3.2015218    
    259000   518            288.93202     -375.87183      3.9961712     -371.87566     -7614.6093      0.239          0.044279728   -0.66639307     2.9064961    
    259100   518.2          302.47515     -376.67975      4.1834841     -372.49627     -11405.082      0.2391        -0.14938731     0.070699932    3.5002121    
    259200   518.4          341.85843     -376.09661      4.7281877     -371.36842     -13092.138      0.2392        -0.15354706     0.33232558     3.748863     
    259300   518.6          318.49901     -376.32712      4.4051074     -371.92201     -13210.227      0.2393         0.52843313    -0.059647639    3.4942825    
    259400   518.8          273.32868     -376.30451      3.7803639     -372.52415     -13063.871      0.2394         0.3428046     -0.027710499    3.6040671    
    259500   519            291.74063     -375.25094      4.0350166     -371.21592     -16951.517      0.2395         0.11733522     0.80860218     4.1595176    
    259600   519.2          320.36606     -376.39716      4.4309303     -371.96623     -18927.915      0.2396         0.9986226      0.7266164      3.9531354    
    259700   519.4          293.47018     -376.21432      4.0589377     -372.15539     -19192.803      0.2397         1.4427366      0.55015387     3.7649504    
    259800   519.6          276.61462     -375.62506      3.8258113     -371.79925     -21426.475      0.2398         0.42121794     1.4258221      4.5809024    
    259900   519.8          349.93593     -375.78153      4.8399063     -370.94163     -19103.224      0.2399         0.92918101     0.75417011     4.0476161    
    260000   520            285.15316     -375.87955      3.9439064     -371.93564     -10977.389      0.24           0.92973169    -0.32803577     2.6915208    
    260100   520.2          274.76456     -375.98186      3.8002234     -372.18164     -13857.506      0.2401        -0.57744689     0.7370799      3.9976187    
    260200   520.4          313.01275     -375.60447      4.3292278     -371.27524     -9453.2923      0.2402        -0.090128658   -0.23714916     3.1632655    
    260300   520.6          313.36118     -376.11325      4.334047      -371.77921     -9356.8506      0.2403         0.36443147    -0.42403716     2.8666609    
    260400   520.8          277.6222      -376.16151      3.8397471     -372.32177     -10406.213      0.2404        -0.73290378     0.2089792      3.6457886    
    260500   521            327.6874      -376.47212      4.5321905     -371.93993     -9802.8744      0.2405        -0.37697025    -0.23453521     3.5523678    
    260600   521.2          353.28462     -376.10685      4.8862215     -371.22063     -7942.6314      0.2406         0.1135217     -0.67765409     2.9469218    
    260700   521.4          321.9386      -376.76257      4.4526799     -372.30989     -10464.464      0.2407        -0.36698658    -0.10248713     3.6088128    
    260800   521.6          281.30068     -376.03945      3.8906234     -372.14883     -6888.5867      0.2408        -0.37484355    -0.68083167     3.1222512    
    260900   521.8          331.94257     -376.22985      4.5910431     -371.63881     -9479.8272      0.2409        -0.20583715    -0.20322363     3.2530089    
    261000   522            282.50421     -376.72979      3.9072692     -372.82252     -11045.704      0.241         -0.14791664    -0.096769625    3.5583973    
    261100   522.2          262.13498     -375.92913      3.6255459     -372.30358     -11467.492      0.2411        -0.26356643     0.11001908     3.5937951    
    261200   522.4          333.2274      -376.25445      4.6088133     -371.64563     -16310.836      0.2412         0.39705074     0.48221701     4.013983     
    261300   522.6          295.96786     -376.39447      4.0934829     -372.30099     -18502.774      0.2413         0.85455289     0.56180356     4.1344758    
    261400   522.8          274.13048     -376.25474      3.7914536     -372.46328     -21361.757      0.2414         1.0834311      0.93940738     4.3856886    
    261500   523            270.11321     -375.43708      3.7358913     -371.70118     -22472.706      0.2415         1.1021291      1.0859373      4.5537454    
    261600   523.2          275.12287     -375.8585       3.8051791     -372.05332     -22929.149      0.2416         1.4934186      0.97616926     4.4091568    
    261700   523.4          243.01082     -376.27533      3.3610426     -372.91429     -24710.183      0.2417         1.4464821      1.3256279      4.640945     
    261800   523.6          279.40884     -375.69964      3.8644577     -371.83518     -23802.457      0.2418         1.1783389      1.3615041      4.600894     
    261900   523.8          330.87765     -376.05475      4.5763144     -371.47844     -22250.303      0.2419         1.4541908      0.97801744     4.2428827    
    262000   524            281.95076     -376.3205       3.8996146     -372.42089     -15253.375      0.242          0.32690817     0.49982512     3.7492791    
    262100   524.2          289.06885     -376.04501      3.9980637     -372.04695     -8833.0952      0.2421        -0.45609964    -0.39202321     3.4980514    
    262200   524.4          355.06636     -376.15513      4.9108645     -371.24427     -3492.0667      0.2422        -0.83707035    -0.87891539     2.7636058    
    262300   524.6          331.93646     -375.08097      4.5909586     -370.49001      1448.9738      0.2423        -1.2061626     -1.4409498      2.2124202    
    262400   524.8          290.08349     -375.93087      4.012097      -371.91877     -311.97297      0.2424        -1.7469765     -1.0925161      2.9330846    
    262500   525            312.1853      -376.35347      4.3177836     -372.03569     -379.53204      0.2425        -1.1815147     -1.1979232      2.4932975    
    262600   525.2          360.61923     -375.90514      4.9876653     -370.91747     -3474.7782      0.2426        -0.82782826    -0.87440756     2.7446693    
    262700   525.4          308.69365     -376.00487      4.2694911     -371.73538     -4766.2843      0.2427        -1.0256822     -0.58233111     3.0378986    
    262800   525.6          281.28438     -375.88783      3.890398      -371.99743     -6866.1672      0.2428        -0.42469975    -0.65926343     3.1438133    
    262900   525.8          323.59698     -375.67293      4.4756166     -371.19731     -11383.19       0.2429         0.087423144   -0.20651897     3.5340529    
    263000   526            304.10172     -375.70824      4.2059809     -371.50226     -16041.113      0.243          0.20651317     0.36711146     4.2387093    
    263100   526.2          268.26025     -375.8861       3.7102634     -372.17584     -15385.025      0.2431         0.60253554     0.11479999     3.8981719    
    263200   526.4          300.2807      -375.62857      4.153133      -371.47543     -16950.598      0.2432         0.94095835     0.41677359     3.7274474    
    263300   526.6          299.757       -375.02991      4.1458898     -370.88402     -19639.933      0.2433         0.45723444     1.0964605      4.338285     
    263400   526.8          294.71705     -376.22872      4.076183      -372.15254     -22067.245      0.2434         1.0408334      0.98176863     4.5975714    
    263500   527            316.76866     -375.97004      4.3811753     -371.58886     -17298.316      0.2435         0.83272833     0.44658906     3.9101774    
    263600   527.2          310.46062     -375.31011      4.2939297     -371.01618     -13150.842      0.2436         0.21288187     0.17793172     3.554439     
    263700   527.4          259.7923      -375.96686      3.5931446     -372.37372     -9415.2851      0.2437        -0.38561323    -0.45843359     3.6686324    
    263800   527.6          332.52447     -376.19845      4.5990912     -371.59936     -6127.7032      0.2438        -0.50989847    -0.77780452     3.126014     
    263900   527.8          387.16994     -375.85848      5.3548837     -370.5036      -3153.1497      0.2439        -0.8924768     -1.0355348      2.8739565    
    264000   528            281.71481     -375.60412      3.8963512     -371.70777      2575.5904      0.244         -2.1460142     -1.4050544      2.7783914    
    264100   528.2          295.58865     -376.18145      4.088238      -372.09321      3378.6482      0.2441        -1.6587515     -1.6143882      2.2595452    
    264200   528.4          339.11364     -375.62646      4.690225      -370.93623      1405.2943      0.2442        -1.375142      -1.5640681      2.5176217    
    264300   528.6          301.04556     -375.89356      4.1637116     -371.72985     -4220.9036      0.2443        -0.90284402    -0.88041482     3.0495299    
    264400   528.8          280.32901     -376.08614      3.8771844     -372.20896     -9237.7513      0.2444        -0.60289683    -0.25158789     3.6258101    
    264500   529            345.44455     -375.459        4.7777867     -370.68121     -11116.585      0.2445         0.58773092    -0.46130599     3.2085505    
    264600   529.2          258.76924     -375.39894      3.5789947     -371.81994     -11061.029      0.2446        -0.13695302     0.076117431    3.3791443    
    264700   529.4          310.79666     -376.45745      4.2985775     -372.15887     -18328.596      0.2447         0.33525826     0.81035619     4.3529644    
    264800   529.6          322.79142     -375.62072      4.4644751     -371.15625     -15817.88       0.2448         0.38577467     0.47468339     3.8849059    
    264900   529.8          321.61636     -376.00713      4.4482229     -371.55891     -15667.539      0.2449         0.58646305     0.24099714     3.8728016    
    265000   530            274.18972     -375.68445      3.7922729     -371.89217     -14600.31       0.245         -0.0665134      0.26745935     4.1791471    
    265100   530.2          297.92274     -375.6898       4.1205203     -371.56928     -10878.223      0.2451         0.15751614    -0.24899091     3.3549415    
    265200   530.4          300.66304     -375.12058      4.1584211     -370.96216     -10236.273      0.2452        -0.14328882    -0.21189689     3.4260675    
    265300   530.6          268.62317     -375.70861      3.7152829     -371.99333     -12104.928      0.2453        -0.63169169     0.22285169     4.0403185    
    265400   530.8          332.68581     -376.26356      4.6013227     -371.66223     -10560.211      0.2454         0.3565543     -0.47612288     3.2876318    
    265500   531            324.54126     -375.1873       4.4886768     -370.69862     -6883.1921      0.2455        -0.35394073    -0.77853267     3.197431     
    265600   531.2          302.28105     -375.89613      4.1807995     -371.71533     -8764.9992      0.2456        -1.3390397     -0.0011208608   3.9696603    
    265700   531.4          301.35787     -376.11973      4.1680311     -371.95169     -5227.7518      0.2457        -0.27958207    -0.90837318     2.7562808    
    265800   531.6          332.63564     -375.66446      4.6006288     -371.06383     -4476.0603      0.2458        -0.63844497    -0.91729176     2.8985548    
    265900   531.8          266.17571     -375.34012      3.6814325     -371.65869     -7965.8462      0.2459        -1.4448713      0.13311313     3.701512     
    266000   532            300.11976     -376.17411      4.150907      -372.0232      -11026.74       0.246          0.004458582   -0.23444464     3.538008     
    266100   532.2          337.78666     -375.8692       4.6718717     -371.19732     -12751.595      0.2461         0.56498503    -0.31377515     3.5742686    
    266200   532.4          277.6879      -375.51762      3.8406556     -371.67696     -14429.517      0.2462        -0.18230398     0.35768433     4.1534749    
    266300   532.6          262.20633     -376.04988      3.6265326     -372.42335     -15751.271      0.2463         0.50127753     0.29029186     3.933812     
    266400   532.8          292.89528     -375.38958      4.0509864     -371.3386      -13549.57       0.2464         0.38779398    -0.062769599    3.7398465    
    266500   533            310.24317     -375.97886      4.2909222     -371.68794     -15047.151      0.2465        -0.073504897    0.59126952     3.9963807    
    266600   533.2          282.57966     -376.01115      3.9083128     -372.10284     -12457.665      0.2466         0.015968633   -0.10991754     3.8312484    
    266700   533.4          309.30051     -375.19595      4.2778844     -370.91807     -12848.777      0.2467         0.48290866    -0.13649783     3.5082222    
    266800   533.6          296.09919     -376.00436      4.0952992     -371.90906     -13988.109      0.2468        -0.11738218     0.29554929     4.0182657    
    266900   533.8          293.76207     -375.98953      4.0629749     -371.92656     -13704.339      0.2469        -0.038451953    0.086008791    4.0637448    
    267000   534            348.25933     -375.49588      4.8167175     -370.67916     -12702.112      0.247          0.62090201    -0.35726983     3.5470015    
    267100   534.2          290.7323      -376.21067      4.0210706     -372.1896      -13354.403      0.2471        -0.6283946      0.22453853     4.4101768    
    267200   534.4          309.41056     -375.98583      4.2794065     -371.70642     -11128.398      0.2472        -0.33609235    -0.10714742     3.7817593    
    267300   534.6          305.0523      -375.37755      4.2191281     -371.15843     -6674.7125      0.2473         0.13404208    -0.87798382     2.7463555    
    267400   534.8          293.73712     -376.33996      4.0626298     -372.27733     -12336.293      0.2474        -0.40436369     0.095293992    4.0099576    
    267500   535            294.87184     -375.71286      4.0783239     -371.63453     -11184.199      0.2475        -0.59772784     0.039833252    3.9131543    
    267600   535.2          316.35828     -375.73494      4.3754993     -371.35945     -8666.0037      0.2476         0.18457491    -0.62154266     3.0367688    
    267700   535.4          334.93519     -376.39381      4.6324335     -371.76137     -15941.277      0.2477         0.10734684     0.49019119     4.1848451    
    267800   535.6          260.8251      -375.90562      3.607429      -372.29819     -16537.255      0.2478        -0.095914213    0.55830617     4.4987846    
    267900   535.8          287.81126     -375.80021      3.9806702     -371.81954     -13292.259      0.2479         0.79355882    -0.021852815    3.2159717    
    268000   536            330.86045     -375.93769      4.5760765     -371.36161     -17356.366      0.248          0.39449046     0.52430729     4.2881119    
    268100   536.2          258.59245     -376.01275      3.5765496     -372.4362      -16219.012      0.2481         0.0029123363   0.58747456     4.2753166    
    268200   536.4          284.40134     -376.27152      3.9335081     -372.33801     -15369.437      0.2482         0.690306       0.10843512     3.81209      
    268300   536.6          317.40925     -375.94238      4.3900352     -371.55235     -16749.707      0.2483         0.64582665     0.4707467      3.9083386    
    268400   536.8          330.87957     -375.82035      4.5763409     -371.24401     -17799.637      0.2484         0.23961486     0.83451173     4.2657646    
    268500   537            271.51095     -376.17618      3.7552233     -372.42096     -13273.982      0.2485         0.45170224    -0.18800075     3.718493     
    268600   537.2          290.10465     -375.47331      4.0123897     -371.46092     -13452.915      0.2486         0.22444128     0.038823483    3.7726098    
    268700   537.4          281.88947     -375.45352      3.8987669     -371.55476     -10624.036      0.2487        -0.48593279    -0.071494418    3.744638     
    268800   537.6          287.33598     -376.15145      3.9740967     -372.17735     -11113.634      0.2488        -0.1570883     -0.20881167     3.6999903    
    268900   537.8          257.05816     -376.22895      3.5553291     -372.67362     -10069.004      0.2489        -0.04724307    -0.36905525     3.4369994    
    269000   538            322.05471     -375.9053       4.4542857     -371.45102     -12651.56       0.249         -0.47808031     0.15177739     4.1217709    
    269100   538.2          279.02743     -375.54104      3.8591825     -371.68185     -8358.7758      0.2491        -0.21411454    -0.49609413     3.2178414    
    269200   538.4          274.45235     -376.41101      3.7959053     -372.6151      -10613.059      0.2492         0.13557358    -0.32815283     3.3764969    
    269300   538.6          298.75436     -375.59617      4.1320224     -371.46415     -12784.05       0.2493        -0.34307618     0.077551984    4.1007391    
    269400   538.8          316.07841     -375.79412      4.3716285     -371.42249     -13992.858      0.2494         0.34496887     0.14445807     3.7084304    
    269500   539            287.15098     -376.311        3.971538      -372.33946     -14830.166      0.2495         0.44780696     0.17329754     3.8279452    
    269600   539.2          310.21256     -375.6886       4.290499      -371.39811     -16888.411      0.2496         0.24951449     0.54264007     4.2743689    
    269700   539.4          332.62019     -375.9399       4.6004151     -371.33949     -17143.814      0.2497         0.34262613     0.51242176     4.2880963    
    269800   539.6          292.51127     -376.18089      4.0456752     -372.13521     -14601.076      0.2498         0.9529487     -0.17613756     3.6035115    
    269900   539.8          307.88862     -375.13258      4.2583568     -370.87423     -15962.369      0.2499        -0.016655895    0.49156504     4.3138015    
    270000   540            307.26678     -375.73384      4.2497563     -371.48408     -15431.904      0.25          -0.090926555    0.36728591     4.3532117    
Loop time of 23.2872 on 96 procs for 250000 steps with 108 atoms

Performance: 1855.094 ns/day, 0.013 hours/ns, 10735.496 timesteps/s, 1.159 Matom-step/s
99.5% CPU use with 96 MPI tasks x 1 OpenMP threads

MPI task timing breakdown:
Section |  min time  |  avg time  |  max time  |%varavg| %total
---------------------------------------------------------------
Pair    | 7.7256     | 7.9972     | 8.3281     |   4.5 | 34.34
Neigh   | 0.00028471 | 0.00036566 | 0.00045917 |   0.0 |  0.00
Comm    | 8.974      | 9.2404     | 9.5176     |   3.8 | 39.68
Output  | 0.19537    | 0.25235    | 0.32397    |   7.5 |  1.08
Modify  | 4.7592     | 4.9568     | 5.2744     |   3.6 | 21.29
Other   |            | 0.8401     |            |       |  3.61

Nlocal:          1.125 ave           2 max           0 min
Histogram: 12 0 0 0 0 60 0 0 0 24
Nghost:        430.906 ave         441 max         421 min
Histogram: 1 3 2 15 25 19 15 13 2 1
Neighs:        82.2188 ave         153 max           0 min
Histogram: 12 0 0 0 58 2 0 0 0 24
FullNghs:      163.938 ave         296 max           0 min
Histogram: 12 0 0 0 53 7 0 0 0 24

Total # of neighbors = 15738
Ave neighs/atom = 145.72222
Neighbor list builds = 25
Dangerous builds = 0

# ---------- 收尾 ----------
unfix           out
unfix           fdef
unfix           fnpt

write_data      cu_nanocube_final.data
System init for write_data ...
Total wall time: 0:00:28
