BEGIN_CFG
 Size
     128 
 Supercell 
  10.2350950000    0.0000000000    0.0000000000
   0.0000000000   16.7007876400    0.0000000000
   0.0000000000    0.0000000000   10.3970812000
AtomData:  id type       cartes_x      cartes_y      cartes_z     fx          fy          fz
      1      0     0.000000     7.232554     0.649818     0.000000    -0.101629    -0.000000
      2      0     0.000000     7.232554     3.249088    -0.000000    -0.101629    -0.000000
      3      0     0.000000     7.232554     5.848358     0.000000    -0.101629     0.000000
      4      0     0.000000     7.232554     8.447628    -0.000000    -0.101629     0.000000
      5      0     0.000000    15.582948     0.649818     0.000000    -0.101629    -0.000000
      6      0     0.000000    15.582948     3.249088     0.000000    -0.101629    -0.000000
      7      0     0.000000    15.582948     5.848358     0.000000    -0.101629    -0.000000
      8      0     0.000000    15.582948     8.447628     0.000000    -0.101629     0.000000
      9      0     2.558774     7.232554     0.649818    -0.000000    -0.101629     0.000000
     10      0     2.558774     7.232554     3.249088    -0.000000    -0.101629     0.000000
     11      0     2.558774     7.232554     5.848358     0.000000    -0.101629     0.000000
     12      0     2.558774     7.232554     8.447628     0.000000    -0.101629     0.000000
     13      0     2.558774    15.582948     0.649818     0.000000    -0.101629     0.000000
     14      0     2.558774    15.582948     3.249088     0.000000    -0.101629    -0.000000
     15      0     2.558774    15.582948     5.848358     0.000000    -0.101629     0.000000
     16      0     2.558774    15.582948     8.447628    -0.000000    -0.101629     0.000000
     17      0     5.117547     7.232554     0.649818     0.000000    -0.101629     0.000000
     18      0     5.117547     7.232554     3.249088     0.000000    -0.101629    -0.000000
     19      0     5.117547     7.232554     5.848358     0.000000    -0.101629     0.000000
     20      0     5.117547     7.232554     8.447628    -0.000000    -0.101629     0.000000
     21      0     5.117547    15.582948     0.649818    -0.000000    -0.101629     0.000000
     22      0     5.117547    15.582948     3.249088    -0.000000    -0.101629    -0.000000
     23      0     5.117547    15.582948     5.848358    -0.000000    -0.101629    -0.000000
     24      0     5.117547    15.582948     8.447628     0.000000    -0.101629     0.000000
     25      0     7.676321     7.232554     0.649818    -0.000000    -0.101629    -0.000000
     26      0     7.676321     7.232554     3.249088    -0.000000    -0.101629    -0.000000
     27      0     7.676321     7.232554     5.848358    -0.000000    -0.101629    -0.000000
     28      0     7.676321     7.232554     8.447628     0.000000    -0.101629     0.000000
     29      0     7.676321    15.582948     0.649818    -0.000000    -0.101629    -0.000000
     30      0     7.676321    15.582948     3.249088     0.000000    -0.101629    -0.000000
     31      0     7.676321    15.582948     5.848358    -0.000000    -0.101629     0.000000
     32      0     7.676321    15.582948     8.447628     0.000000    -0.101629     0.000000
     33      0     1.279387     5.293036     1.949453     0.000000     0.101629    -0.000000
     34      0     1.279387     5.293036     4.548723    -0.000000     0.101629    -0.000000
     35      0     1.279387     5.293036     7.147993    -0.000000     0.101629     0.000000
     36      0     1.279387     5.293036     9.747264     0.000000     0.101629    -0.000000
     37      0     1.279387    13.643430     1.949453     0.000000     0.101629    -0.000000
     38      0     1.279387    13.643430     4.548723    -0.000000     0.101629    -0.000000
     39      0     1.279387    13.643430     7.147993     0.000000     0.101629     0.000000
     40      0     1.279387    13.643430     9.747264     0.000000     0.101629     0.000000
     41      0     3.838161     5.293036     1.949453    -0.000000     0.101629    -0.000000
     42      0     3.838161     5.293036     4.548723    -0.000000     0.101629    -0.000000
     43      0     3.838161     5.293036     7.147993     0.000000     0.101629     0.000000
     44      0     3.838161     5.293036     9.747264     0.000000     0.101629     0.000000
     45      0     3.838161    13.643430     1.949453     0.000000     0.101629    -0.000000
     46      0     3.838161    13.643430     4.548723    -0.000000     0.101629    -0.000000
     47      0     3.838161    13.643430     7.147993    -0.000000     0.101629     0.000000
     48      0     3.838161    13.643430     9.747264    -0.000000     0.101629     0.000000
     49      0     6.396934     5.293036     1.949453     0.000000     0.101629     0.000000
     50      0     6.396934     5.293036     4.548723    -0.000000     0.101629    -0.000000
     51      0     6.396934     5.293036     7.147993    -0.000000     0.101629     0.000000
     52      0     6.396934     5.293036     9.747264    -0.000000     0.101629     0.000000
     53      0     6.396934    13.643430     1.949453    -0.000000     0.101629    -0.000000
     54      0     6.396934    13.643430     4.548723    -0.000000     0.101629    -0.000000
     55      0     6.396934    13.643430     7.147993    -0.000000     0.101629     0.000000
     56      0     6.396934    13.643430     9.747264     0.000000     0.101629     0.000000
     57      0     8.955708     5.293036     1.949453    -0.000000     0.101629     0.000000
     58      0     8.955708     5.293036     4.548723    -0.000000     0.101629    -0.000000
     59      0     8.955708     5.293036     7.147993    -0.000000     0.101629     0.000000
     60      0     8.955708     5.293036     9.747264     0.000000     0.101629     0.000000
     61      0     8.955708    13.643430     1.949453     0.000000     0.101629    -0.000000
     62      0     8.955708    13.643430     4.548723    -0.000000     0.101629    -0.000000
     63      0     8.955708    13.643430     7.147993    -0.000000     0.101629     0.000000
     64      0     8.955708    13.643430     9.747264     0.000000     0.101629     0.000000
     65      0     1.279387     3.057358     0.649818     0.000000    -0.101629    -0.000000
     66      0     1.279387     3.057358     3.249088     0.000000    -0.101629    -0.000000
     67      0     1.279387     3.057358     5.848358     0.000000    -0.101629    -0.000000
     68      0     1.279387     3.057358     8.447628    -0.000000    -0.101629     0.000000
     69      0     1.279387    11.407752     0.649818     0.000000    -0.101629     0.000000
     70      0     1.279387    11.407752     3.249088     0.000000    -0.101629    -0.000000
     71      0     1.279387    11.407752     5.848358    -0.000000    -0.101629     0.000000
     72      0     1.279387    11.407752     8.447628     0.000000    -0.101629     0.000000
     73      0     3.838161     3.057358     0.649818     0.000000    -0.101629     0.000000
     74      0     3.838161     3.057358     3.249088    -0.000000    -0.101629    -0.000000
     75      0     3.838161     3.057358     5.848358     0.000000    -0.101629     0.000000
     76      0     3.838161     3.057358     8.447628    -0.000000    -0.101629     0.000000
     77      0     3.838161    11.407752     0.649818    -0.000000    -0.101629    -0.000000
     78      0     3.838161    11.407752     3.249088    -0.000000    -0.101629    -0.000000
     79      0     3.838161    11.407752     5.848358    -0.000000    -0.101629    -0.000000
     80      0     3.838161    11.407752     8.447628    -0.000000    -0.101629     0.000000
     81      0     6.396934     3.057358     0.649818    -0.000000    -0.101629     0.000000
     82      0     6.396934     3.057358     3.249088    -0.000000    -0.101629    -0.000000
     83      0     6.396934     3.057358     5.848358    -0.000000    -0.101629    -0.000000
     84      0     6.396934     3.057358     8.447628    -0.000000    -0.101629     0.000000
     85      0     6.396934    11.407752     0.649818    -0.000000    -0.101629     0.000000
     86      0     6.396934    11.407752     3.249088     0.000000    -0.101629    -0.000000
     87      0     6.396934    11.407752     5.848358     0.000000    -0.101629    -0.000000
     88      0     6.396934    11.407752     8.447628     0.000000    -0.101629     0.000000
     89      0     8.955708     3.057358     0.649818     0.000000    -0.101629    -0.000000
     90      0     8.955708     3.057358     3.249088    -0.000000    -0.101629    -0.000000
     91      0     8.955708     3.057358     5.848358     0.000000    -0.101629     0.000000
     92      0     8.955708     3.057358     8.447628    -0.000000    -0.101629     0.000000
     93      0     8.955708    11.407752     0.649818    -0.000000    -0.101629    -0.000000
     94      0     8.955708    11.407752     3.249088     0.000000    -0.101629    -0.000000
     95      0     8.955708    11.407752     5.848358     0.000000    -0.101629    -0.000000
     96      0     8.955708    11.407752     8.447628    -0.000000    -0.101629     0.000000
     97      0     0.000000     1.117839     1.949453     0.000000     0.101629    -0.000000
     98      0     0.000000     1.117839     4.548723     0.000000     0.101629    -0.000000
     99      0     0.000000     1.117839     7.147993     0.000000     0.101629     0.000000
    100      0     0.000000     1.117839     9.747264    -0.000000     0.101629     0.000000
    101      0     0.000000     9.468233     1.949453     0.000000     0.101629     0.000000
    102      0     0.000000     9.468233     4.548723    -0.000000     0.101629    -0.000000
    103      0     0.000000     9.468233     7.147993    -0.000000     0.101629     0.000000
    104      0     0.000000     9.468233     9.747264     0.000000     0.101629     0.000000
    105      0     2.558774     1.117839     1.949453     0.000000     0.101629    -0.000000
    106      0     2.558774     1.117839     4.548723    -0.000000     0.101629    -0.000000
    107      0     2.558774     1.117839     7.147993     0.000000     0.101629     0.000000
    108      0     2.558774     1.117839     9.747264     0.000000     0.101629    -0.000000
    109      0     2.558774     9.468233     1.949453     0.000000     0.101629    -0.000000
    110      0     2.558774     9.468233     4.548723    -0.000000     0.101629    -0.000000
    111      0     2.558774     9.468233     7.147993     0.000000     0.101629     0.000000
    112      0     2.558774     9.468233     9.747264    -0.000000     0.101629    -0.000000
    113      0     5.117547     1.117839     1.949453     0.000000     0.101629    -0.000000
    114      0     5.117547     1.117839     4.548723     0.000000     0.101629    -0.000000
    115      0     5.117547     1.117839     7.147993    -0.000000     0.101629     0.000000
    116      0     5.117547     1.117839     9.747264     0.000000     0.101629     0.000000
    117      0     5.117547     9.468233     1.949453    -0.000000     0.101629    -0.000000
    118      0     5.117547     9.468233     4.548723    -0.000000     0.101629    -0.000000
    119      0     5.117547     9.468233     7.147993    -0.000000     0.101629     0.000000
    120      0     5.117547     9.468233     9.747264     0.000000     0.101629     0.000000
    121      0     7.676321     1.117839     1.949453     0.000000     0.101629     0.000000
    122      0     7.676321     1.117839     4.548723    -0.000000     0.101629    -0.000000
    123      0     7.676321     1.117839     7.147993     0.000000     0.101629     0.000000
    124      0     7.676321     1.117839     9.747264     0.000000     0.101629     0.000000
    125      0     7.676321     9.468233     1.949453     0.000000     0.101629     0.000000
    126      0     7.676321     9.468233     4.548723    -0.000000     0.101629    -0.000000
    127      0     7.676321     9.468233     7.147993    -0.000000     0.101629     0.000000
    128      0     7.676321     9.468233     9.747264     0.000000     0.101629     0.000000
Energy 
	-454.17787602 
PlusStress:  xx          yy          zz          yz          xz          xy 
	-98.62845267445111  	-112.63922475392684  	-107.88743907079022  	0.0  	0.0  	0.0 
END_CFG 
BEGIN_CFG
 Size
     128 
 Supercell 
  10.2350950000    0.0000000000    0.0000000000
   0.0000000000   16.7007876400    0.0000000000
   0.0000000000    0.0000000000   10.3970812000
AtomData:  id type       cartes_x      cartes_y      cartes_z     fx          fy          fz
      1      0     0.043469     7.239643     0.624191    -0.188113    -0.105368     0.000408
      2      0    10.215586     7.208733     3.227182     0.057731    -0.033568     0.062854
      3      0    10.231838     7.243955     5.834652    -0.019530    -0.143106    -0.035314
      4      0     0.023891     7.224570     8.408383    -0.111076    -0.087486     0.103900
      5      0    10.227629    15.585829     0.664914     0.047611    -0.073750    -0.033563
      6      0    10.198509    15.592277     3.267713     0.162788    -0.123049    -0.096548
      7      0    10.231024    15.597668     5.843798     0.042676    -0.164420     0.078876
      8      0     0.006960    15.625304     8.458901    -0.060376    -0.254411    -0.067259
      9      0     2.547995     7.242857     0.669942     0.192646    -0.201586    -0.143725
     10      0     2.539936     7.215140     3.253211    -0.012125    -0.068278     0.091468
     11      0     2.539137     7.207048     5.875758     0.060491    -0.008008    -0.135483
     12      0     2.534941     7.223751     8.422377     0.090972    -0.114291     0.147068
     13      0     2.582984    15.563473     0.670850    -0.127296    -0.096429    -0.185625
     14      0     2.543745    15.581547     3.217691     0.018212    -0.120589     0.195399
     15      0     2.561743    15.590989     5.879425    -0.029469    -0.174364    -0.200787
     16      0     2.550800    15.561373     8.415750     0.060749    -0.068710     0.182812
     17      0     5.148506     7.199827     0.674708    -0.135768    -0.009723    -0.048370
     18      0     5.079269     7.215410     3.274884     0.066747    -0.055234    -0.081132
     19      0     5.106500     7.206170     5.850804     0.000405    -0.052254     0.080781
     20      0     5.096513     7.252503     8.463489     0.058679    -0.232106    -0.050706
     21      0     5.099891    15.591895     0.654728     0.121637    -0.160941    -0.051137
     22      0     5.160709    15.580952     3.230121    -0.173588     0.027904     0.118861
     23      0     5.125627    15.587742     5.866991    -0.014506    -0.121733    -0.094704
     24      0     5.122727    15.615410     8.442129    -0.050690    -0.232769     0.065109
     25      0     7.672840     7.226435     0.654550     0.099230    -0.067316    -0.009985
     26      0     7.675715     7.262890     3.245154    -0.105812    -0.230146    -0.001122
     27      0     7.674768     7.215960     5.855950    -0.052919    -0.021863     0.018896
     28      0     7.688742     7.225560     8.461938    -0.064382     0.001665    -0.037010
     29      0     7.670939    15.576126     0.685902    -0.028156    -0.085024    -0.109315
     30      0     7.688947    15.599741     3.271840    -0.054323    -0.089145    -0.069426
     31      0     7.687460    15.565307     5.834630    -0.055517    -0.030934     0.066592
     32      0     7.663787    15.559742     8.462747     0.066222    -0.060841    -0.005723
     33      0     1.286140     5.319583     1.932233    -0.096547    -0.031262     0.090465
     34      0     1.294385     5.271371     4.549179    -0.146741     0.151906    -0.020832
     35      0     1.249428     5.292490     7.133095     0.071257     0.010538     0.033128
     36      0     1.281367     5.264492     9.752545    -0.024362     0.139259    -0.077477
     37      0     1.251876    13.643970     1.908690     0.118221     0.063400     0.141945
     38      0     1.270163    13.620115     4.542120    -0.057168     0.202098     0.030262
     39      0     1.249337    13.625460     7.149474     0.052206     0.149657    -0.062900
     40      0     1.300996    13.639874     9.736519    -0.075367     0.129737    -0.019411
     41      0     3.825858     5.276507     1.964750     0.035395     0.110178    -0.048170
     42      0     3.818160     5.266599     4.562109     0.084887     0.154865    -0.014479
     43      0     3.832527     5.281247     7.161061    -0.013858     0.087908    -0.040520
     44      0     3.834547     5.303847     9.744800     0.055056     0.127846     0.072125
     45      0     3.855429    13.672555     1.955306    -0.083410    -0.046558    -0.041767
     46      0     3.813341    13.648950     4.552424     0.054073     0.168489    -0.077329
     47      0     3.852270    13.618105     7.118508    -0.068112     0.221451     0.108827
     48      0     3.843504    13.620116     9.699558     0.047621     0.230141     0.177089
     49      0     6.390382     5.292539     1.972693    -0.013910     0.072219    -0.110822
     50      0     6.400947     5.298253     4.520379    -0.059139     0.081899     0.182091
     51      0     6.395763     5.288115     7.171163    -0.034617     0.133569    -0.106374
     52      0     6.428565     5.268346     9.739274    -0.166209     0.181628     0.081714
     53      0     6.397479    13.636546     1.999176     0.052086     0.137617    -0.219822
     54      0     6.383031    13.657482     4.540771    -0.055747     0.031423     0.138326
     55      0     6.405657    13.632711     7.153862    -0.067325     0.136533     0.010517
     56      0     6.410367    13.626145     9.743259    -0.047770     0.165200     0.086734
     57      0     8.931544     5.314457     1.946475     0.088555     0.044946    -0.005801
     58      0     8.940812     5.323358     4.555868     0.073368    -0.013501    -0.012563
     59      0     8.949754     5.298308     7.158137    -0.034224     0.057151    -0.074404
     60      0     8.937367     5.311731     9.727779     0.167841     0.075482     0.103168
     61      0     8.961985    13.633304     1.964635    -0.071000     0.151761    -0.102305
     62      0     8.919562    13.653211     4.525985     0.108800     0.046968     0.153153
     63      0     8.932260    13.647655     7.147041     0.091834     0.083391     0.001775
     64      0     8.965451    13.643739     9.762343     0.034893     0.140756    -0.065012
     65      0     1.285066     3.058906     0.689295    -0.008138    -0.083251    -0.141432
     66      0     1.284140     3.051847     3.275182    -0.025719    -0.078582    -0.080445
     67      0     1.325866     3.031256     5.850473    -0.112818    -0.028420    -0.011773
     68      0     1.271502     3.044401     8.416260     0.056323    -0.072200     0.168770
     69      0     1.279067    11.401641     0.620584    -0.012972    -0.156773     0.088828
     70      0     1.276180    11.417086     3.268434     0.099937    -0.168388    -0.137750
     71      0     1.288348    11.356944     5.855040    -0.011616     0.073295    -0.051686
     72      0     1.316097    11.403476     8.425620    -0.059208    -0.090422     0.087296
     73      0     3.857945     3.056012     0.633790    -0.104005    -0.051104     0.101740
     74      0     3.833654     3.038705     3.255346     0.025889    -0.077953    -0.082817
     75      0     3.861874     3.036522     5.813930    -0.006341    -0.031222     0.221897
     76      0     3.798964     3.074620     8.474081     0.165987    -0.192434    -0.121200
     77      0     3.822116    11.396217     0.671700     0.017235    -0.088576    -0.013929
     78      0     3.855503    11.398826     3.259856    -0.118931    -0.082452    -0.037732
     79      0     3.847438    11.437858     5.844797    -0.016173    -0.269391     0.021306
     80      0     3.884922    11.413228     8.487284    -0.166498    -0.160239    -0.134157
     81      0     6.387384     3.053779     0.644149     0.065801    -0.065579     0.037180
     82      0     6.406491     3.057065     3.261910    -0.062976    -0.078927    -0.044735
     83      0     6.418139     3.054681     5.861800    -0.029023    -0.042468    -0.012455
     84      0     6.427818     3.052069     8.445647    -0.134371    -0.134506    -0.014589
     85      0     6.384779    11.416029     0.662895     0.020661    -0.113638    -0.024226
     86      0     6.370439    11.413806     3.242734     0.172538    -0.169920     0.129435
     87      0     6.390040    11.416618     5.880652     0.061018    -0.147699    -0.156897
     88      0     6.381757    11.380835     8.461074     0.180327     0.012810     0.024425
     89      0     8.933484     3.077743     0.659917     0.069601    -0.133501    -0.023020
     90      0     8.952498     3.060739     3.270637     0.050235    -0.033431    -0.088046
     91      0     8.962052     3.038586     5.854705     0.069044     0.033776     0.007031
     92      0     8.986641     3.065190     8.462509    -0.103044    -0.094163    -0.030113
     93      0     8.963273    11.412047     0.611056    -0.017719    -0.137885     0.160342
     94      0     8.974613    11.440278     3.250354    -0.108671    -0.267279    -0.045465
     95      0     8.955584    11.386990     5.841485    -0.004069    -0.016552    -0.012314
     96      0     8.956283    11.394373     8.434219     0.032969    -0.022069     0.002649
     97      0     0.010273     1.150889     1.929377    -0.088627     0.010912     0.097065
     98      0    10.225076     1.103243     4.546002     0.036175     0.182192    -0.009109
     99      0    10.217906     1.159744     7.147263     0.079606    -0.054159    -0.014857
    100      0     0.022272     1.112280     9.744332    -0.076633     0.198800     0.051408
    101      0     0.011434     9.460878     1.981059    -0.087002     0.151032    -0.164942
    102      0     0.004284     9.469492     4.550319     0.025768     0.061697    -0.034353
    103      0     0.006943     9.472880     7.144762    -0.023404     0.058462    -0.025926
    104      0    10.231755     9.457515     9.713184     0.019038     0.125812     0.115470
    105      0     2.559789     1.113026     1.942273     0.034739     0.112665     0.091515
    106      0     2.553191     1.114609     4.555178     0.018476     0.005649    -0.039683
    107      0     2.574954     1.113630     7.161383    -0.091978     0.100740     0.036800
    108      0     2.565368     1.105854     9.791451    -0.000679     0.081125    -0.174888
    109      0     2.534765     9.424839     1.947226     0.114004     0.301465     0.038384
    110      0     2.588493     9.472121     4.559028    -0.036636     0.022049    -0.026352
    111      0     2.571730     9.488488     7.159570     0.031932     0.003109    -0.064266
    112      0     2.558991     9.444296     9.724548     0.025467     0.148943     0.103257
    113      0     5.128881     1.152527     1.942919    -0.079156    -0.013492     0.131514
    114      0     5.118166     1.136113     4.584027     0.031638    -0.023367    -0.163823
    115      0     5.096209     1.117749     7.150252     0.095741     0.184477     0.100065
    116      0     5.121617     1.113791     9.783451     0.000858     0.148948    -0.176465
    117      0     5.130293     9.483441     1.945776    -0.071430    -0.026303     0.010882
    118      0     5.138651     9.439699     4.561705    -0.003573     0.190853     0.016068
    119      0     5.118539     9.491040     7.174921    -0.021832    -0.016188    -0.183822
    120      0     5.130225     9.450907     9.717692    -0.043172     0.114317     0.259319
    121      0     7.655743     1.116446     1.947206     0.121835     0.127507    -0.043084
    122      0     7.676883     1.156010     4.537066    -0.015938    -0.053607     0.055056
    123      0     7.668807     1.081954     7.135739    -0.016962     0.162868     0.002129
    124      0     7.674087     1.133536     9.704281     0.075300    -0.003864     0.164581
    125      0     7.683833     9.467243     1.946686     0.025469     0.190020     0.009861
    126      0     7.684600     9.438818     4.523110     0.007973     0.281648     0.138840
    127      0     7.667392     9.481153     7.162254     0.042794     0.002024    -0.053661
    128      0     7.678593     9.477554     9.780517     0.001198     0.053986    -0.100526
Energy 
	-453.91779061 
PlusStress:  xx          yy          zz          yz          xz          xy 
	-96.3107425224161  	-110.03546828748308  	-105.40088652180017  	0.0076973375841204094  	0.01822742522594867  	-0.5639572812420566 
END_CFG 
BEGIN_CFG
 Size
     128 
 Supercell 
  10.2350950000    0.0000000000    0.0000000000
   0.0000000000   16.7007876400    0.0000000000
   0.0000000000    0.0000000000   10.3970812000
AtomData:  id type       cartes_x      cartes_y      cartes_z     fx          fy          fz
      1      0     0.058795     7.196946     0.620548    -0.269472     0.009722     0.023450
      2      0     0.042275     7.230342     3.270599    -0.027600    -0.187119    -0.093402
      3      0    10.206476     7.315926     5.910397    -0.003897    -0.414635    -0.422298
      4      0    10.154915     7.263022     8.374797     0.252528    -0.264688     0.373877
      5      0    10.207973    15.449341     0.600249     0.162622     0.504409     0.290263
      6      0     0.018253    15.549963     3.291189    -0.016159    -0.001374    -0.359065
      7      0     0.023397    15.608246     5.815189    -0.265823    -0.221356     0.212851
      8      0     0.047661    15.608352     8.478631    -0.225179    -0.230032    -0.223512
      9      0     2.545070     7.175856     0.656204     0.218868     0.074598    -0.299165
     10      0     2.608424     7.251400     3.236497    -0.093607    -0.200045     0.189512
     11      0     2.560156     7.236984     5.830983    -0.095891    -0.072279    -0.036439
     12      0     2.544342     7.318068     8.372861    -0.150431    -0.434145     0.301322
     13      0     2.565251    15.654966     0.643811     0.019945    -0.380261     0.054553
     14      0     2.617635    15.609235     3.270405    -0.308298    -0.136989     0.056483
     15      0     2.503929    15.546831     5.931632     0.209869    -0.075508    -0.339931
     16      0     2.546055    15.627011     8.454710     0.088800    -0.260886     0.151500
     17      0     5.174624     7.228107     0.657455    -0.392008    -0.139812    -0.063955
     18      0     5.161006     7.296865     3.279431    -0.077542    -0.297287    -0.222308
     19      0     5.117889     7.249377     5.833381    -0.165885    -0.163249     0.005951
     20      0     5.085783     7.278070     8.385081     0.085279    -0.292007     0.238284
     21      0     5.157216    15.689221     0.687442    -0.158807    -0.630063    -0.183010
     22      0     5.054051    15.612313     3.223893     0.420617    -0.182481     0.161314
     23      0     5.075484    15.538066     5.829756     0.003469     0.113892     0.052671
     24      0     5.092928    15.609710     8.463027     0.000895    -0.151463    -0.004814
     25      0     7.638416     7.213978     0.675383     0.389424     0.082363    -0.092587
     26      0     7.689311     7.243184     3.251354     0.140478    -0.072543    -0.014190
     27      0     7.594226     7.228733     5.811139     0.265247    -0.161214     0.185371
     28      0     7.673262     7.212131     8.496309    -0.187107     0.012271    -0.293879
     29      0     7.652539    15.590193     0.575084     0.159776    -0.109059     0.600552
     30      0     7.677453    15.585092     3.280153    -0.038878    -0.306722    -0.089216
     31      0     7.609864    15.607518     5.849646     0.100198    -0.208752     0.092494
     32      0     7.620175    15.584594     8.547705     0.168994    -0.107883    -0.694544
     33      0     1.328041     5.285800     1.914260    -0.318627     0.008969     0.079935
     34      0     1.298342     5.247902     4.512671    -0.072355     0.228141     0.095374
     35      0     1.282979     5.318062     7.120857    -0.064475     0.112086    -0.039930
     36      0     1.256793     5.225455     9.699899    -0.006698     0.381858     0.072997
     37      0     1.329689    13.660541     1.991888     0.003560     0.036972    -0.149683
     38      0     1.274666    13.626559     4.493041     0.157816     0.122388     0.245398
     39      0     1.258605    13.649360     7.123934    -0.081525     0.098629     0.223901
     40      0     1.308690    13.629375     9.814030    -0.030500     0.070703    -0.232222
     41      0     3.793913     5.351661     1.978581     0.395149    -0.179487    -0.087973
     42      0     3.838473     5.314435     4.557841    -0.021779     0.068468    -0.089122
     43      0     3.817017     5.325748     7.148634     0.032586     0.029816     0.017194
     44      0     3.819695     5.266936     9.727531     0.029518     0.265845     0.019447
     45      0     3.872915    13.651594     2.002473    -0.054587     0.187902    -0.278505
     46      0     3.895393    13.601222     4.570270    -0.284440     0.335784    -0.111050
     47      0     3.859922    13.671240     7.156674    -0.271498    -0.102889     0.063743
     48      0     3.809614    13.638276     9.741513     0.248728     0.195521     0.020098
     49      0     6.410546     5.330181     1.940037    -0.183132    -0.104070     0.031552
     50      0     6.357271     5.332619     4.483915     0.135628    -0.027160     0.148211
     51      0     6.376699     5.275228     7.112683     0.028727     0.278351    -0.017362
     52      0     6.390860     5.370073     9.750290    -0.153506    -0.259716    -0.116536
     53      0     6.404731    13.651141     1.992366     0.080827     0.126467    -0.091107