(written by ASE)

156 atoms
1 atom types

0.0               11.400361  xlo xhi
0.0      12.098903999999999  ylo yhi
0.0               12.816801  zlo zhi

Atoms # atomic

     1   1              10.9446628      1.3170748799999996              1.58588456
     2   1      6.2350284299999998       5.060587179999998      8.2981077299999999
     3   1      3.9159055700000001      4.1422053099999978      10.990523469999999
     4   1      7.9862943900000003      4.8514853199999992             12.32923882
     5   1      6.9128345799999993      6.0909074899999993      1.5219967299999999
     6   1      4.4672655599999995      5.2574438299999979      4.4113905899999999
     7   1      6.0872403400000001      6.2084033499999993      6.0408077100000002
     8   1      5.3281667999999991      6.1805287699999987      10.314987709999999
     9   1      9.3396842800000002      6.9074797999999982      11.541826159999999
    10   1      8.3356149100000003       8.052236569999998     0.73751592999999993
    11   1      5.9440701099999993      7.2187187799999988      3.6162343400000001
    12   1      7.5141014899999998      8.2116151199999958      5.2844032099999998
    13   1      7.6971043899999998      7.1405914399999988      7.6660406999999999
    14   1      9.3131684799999981      8.0695242599999979      9.2935611799999993
    15   1      8.5156876100000005      9.2278252599999977             11.35700847
    16   1      7.8158575999999993      10.432313169999999     0.62320746999999999
    17   1      4.6235218199999997      4.1407611099999988      6.6619505299999995
    18   1      5.6089357299999998      4.2280275699999992      2.6071998199999999
    19   1      5.2197883599999999      2.2678749799999998      12.000923740000001
    20   1       6.611958669999999      3.1674218899999995     0.71024412000000059
    21   1      5.4205336300000004      10.640074539999999              1.06741112
    22   1       4.852733709999999      9.3733947299999958      3.1683945699999998
    23   1       6.381328149999999      10.327681389999997      4.7167754899999998
    24   1      4.2223227400000001      9.6414449499999986      7.8313052599999997
    25   1      5.8475863800000001      10.568330779999998      9.4998415299999994
    26   1      3.6778493599999997      9.6777961499999989      12.218792499999999
    27   1      4.7758084399999987      11.809113489999996      3.1650368100000001
    28   1      7.3104818099999989      9.1826887899999985      2.7367691000000001
    29   1      5.5172396199999998      11.453076039999997      6.6935182700000002
    30   1      4.6749732899999996     0.45094113999999991      8.6217824000000007
    31   1      5.0536075599999997      11.754262889999998      11.591606690000001
    32   1      6.0842824099999993      1.7555223999999996              2.56798868
    33   1      5.4117855899999991      2.9506143199999992      4.6510145100000004
    34   1      8.1288380899999986      1.6394503499999995              6.40674791
    35   1      7.3203925099999996      2.8030330999999991      8.4997061299999999
    36   1      6.3362774099999992      1.3535785299999996      10.228992509999999
    37   1      6.4812545699999999     0.68634520999999982      4.7988541400000004
    38   1      4.3681254699999998      7.3007746299999985             12.35238384
    39   1              8.83227546      10.131141899999998      4.2953725199999999
    40   1      8.2795027799999996      10.327595709999997      9.0553707899999996
    41   1      8.6173369199999996      6.0314281499999982      5.6673835800000001
    42   1      7.8079451699999991      5.9681574899999994      9.9298039599999992
    43   1      8.4345174199999988      7.0564939499999992      3.2073908099999997
    44   1      9.9853162999999991      8.0106930899999984      4.8828310999999998
    45   1             10.17979309      6.9402890599999978      7.2565494699999995
    46   1      10.959204939999999      8.9881659499999973      10.940144289999999
    47   1      10.222463250000001      10.170176499999998     0.19782988999999998
    48   1      9.8154058699999975      8.9755576499999972              2.33881096
    49   1      9.1072016399999978       9.172739319999998       6.955471199999999
    50   1      10.720835449999997      10.115494079999998      8.6372105500000007
    51   1      9.9230205700000003      11.253750999999996              10.7236315
    52   1      9.5865954900000006      11.426216099999996      2.2558663800000001
    53   1             10.37331829      11.046053239999999      5.8730321400000003
    54   1      6.7397007499999999     0.61331783999999989     0.39996712000000001
    55   1             11.32503425     0.26230132999999989      3.9117795200000005
    56   1      7.0919152199999997       5.124428019999999      4.1213911000000003
    57   1      9.4391644600000006      5.9144189199999984      1.1552817200000001
    58   1      6.4480010099999996      3.9240735099999995             10.63259642
    59   1      8.6899806000000002      4.8510896799999994      7.8615015999999995
    60   1      6.0942602499999987      9.4492808399999966      11.793845889999998
    61   1      7.1966932200000002      11.643871319999999      2.6939625199999999
    62   1      7.9490921700000001      11.254043799999998      6.2847067699999997
    63   1      4.3384075600000003     0.78952052999999989     0.92018968000000001
    64   1      8.9012565099999996     0.51325751999999991      4.3030896399999996
    65   1      7.1342852399999988     0.27051475999999991      8.2879091700000007
    66   1      7.4927721700000003      11.502899679999999      11.152355099999999
    67   1      6.6642743399999995      9.3894794899999976      7.3888480400000001
    68   1              8.49373836      1.6539358999999996              1.91929748
    69   1      10.555838420000001      1.4341311799999998      5.9527004300000002
    70   1      9.7305874299999999      2.5702450199999993      8.0347600400000001
    71   1      8.7680670500000009      1.2215852399999996              9.97370102
    72   1             10.47741366      2.2510459899999993             11.84431674
    73   1      8.0496659499999996      2.3333957499999993      11.955693490000002
    74   1      8.0697141499999994      4.0770511299999992              2.13695813
    75   1      7.0750384300000002      3.9104779399999989      6.2539184599999995
    76   1      7.8183842300000004      2.7377819999999997      4.1473108500000002
    77   1      6.8624098900000003      8.2784194899999974      9.7165193100000007
    78   1      5.2376017900000003      7.3585401999999984      8.0655287100000006
    79   1      5.0672343900000003      8.4402270099999974      5.7221114899999996
    80   1      1.4467694399999997      10.795174529999999      5.5173434800000001
    81   1     0.95873136999999986      11.049446839999998             10.33152231
    82   1     0.52690431000000004      11.930055949999996      7.4461858200000002
    83   1              1.60573184      1.1847657899999995      5.5970682399999996
    84   1             11.06860066     0.94573639999999992      9.4659686500000007
    85   1     0.51766345999999996       3.464882279999999      5.3154129799999996
    86   1      3.2493231499999995       2.104984299999999      7.2729711299999993
    87   1      2.3616621900000001      3.2463962599999996      9.3074382900000003
    88   1      1.2257754599999999      1.7465586899999996             10.96209078
    89   1      1.1256593499999998       3.290872279999999     0.96181957000000118
    90   1      1.9442410299999997     0.98507704999999979              1.33075188
    91   1     0.40402949999999999      4.5409453399999995      2.9846598800000002
    92   1              1.30509779      5.5048437599999982      9.0817835700000007
    93   1      10.394100080000001      4.6998783599999987      11.797756529999999
    94   1               2.8897401      5.2436513999999992     0.27729885000000076
    95   1      11.314848040000001      9.8852090499999985      3.9344765700000002
    96   1     0.58273185000000005      11.106694359999999      1.8780608900000002
    97   1              1.25036996      9.9041143999999957             12.61808697
    98   1              2.00300214       8.747917039999999             10.54938095
    99   1      10.230810869999999      2.5593186999999991      3.5966213200000006
   100   1     0.77028351000000117      2.3473967599999996      7.6273684900000003
   101   1     0.45402186999999911      5.6141081899999987     0.69410342999999997
   102   1             10.12894281      3.5540854699999995              1.15173992
   103   1      9.4947765099999994      3.6872763999999996      5.7673762399999999
   104   1       8.892962009999998      3.7351071499999993             10.13852531
   105   1      9.5485069399999993      4.9237364699999979      3.6388587199999995
   106   1      1.9628822699999997      6.5315229099999987      2.3835762300000001
   107   1      10.268027180000001      5.7733219999999985      9.4832488599999998
   108   1      11.119714829999999      4.6142272099999984              7.41647356
   109   1             11.28631697      3.4719833899999992              9.70389634
   110   1      10.934470470000001      6.8442839499999995      2.8257355799999999
   111   1      10.850282270000001      7.8234992599999984     0.33679087999999963
   112   1     0.92297935999999992      8.7076533899999973              1.96472848
   113   1     0.16445449999999998      8.9545710699999983      6.5608069599999999
   114   1              0.37441035      7.8429029399999992      8.8892265899999998
   115   1      9.1857471400000001      0.3313896899999999      12.774983210000002
   116   1      11.061241970000001      5.7910257799999991      5.2107336699999998
   117   1      1.2169075499999999      6.6860039399999982      6.8378724699999998
   118   1     0.42049028999999999      6.6537407099999983             11.12590149
   119   1      5.7051624900000002      1.8653168599999996      6.8723778900000001
   120   1              4.86746078      3.0196716099999996      8.9430834600000004
   121   1      3.6998634300000002      1.4565414799999996             10.46441755
   122   1      4.2034993799999993       3.335454509999999      1.0751540799999999
   123   1      3.6953210299999997      1.9732978199999995      3.0065393199999999
   124   1              2.83299009      4.2855434899999993      2.7263808599999999
   125   1      2.1577677500000001      4.3763244599999993      7.0111120400000004
   126   1              2.97542806      3.2061064499999996      5.0011810900000002
   127   1      3.7601427899999997      5.2801060699999987      8.6758051900000002
   128   1      4.4051392199999988      6.2253754099999981              1.94067312
   129   1      2.0178059099999999      5.4878706499999979      4.7271263499999998
   130   1      3.6254046099999995      6.4295851799999992      6.4126130700000008
   131   1              2.85614759      6.3808238999999993             10.73220444
   132   1      6.8615280799999994      7.0852760399999983      11.947554569999999
   133   1      5.8365918199999998      8.2321088799999984      1.1504937399999999
   134   1      3.4972645899999999       7.475104169999998      4.0599000700000003
   135   1      1.4009880399999999      4.3084504699999986             11.41937596
   136   1      9.5141865200000009    0.065902149999999993      7.8853279999999994
   137   1      1.2831926300000001      2.2654639799999989      3.3057574700000001
   138   1      2.1008145599999999     0.67170411999999979      8.9770655999999995
   139   1      5.4265729699999996      5.1088080899999984      12.653304260000001
   140   1      3.3888007999999998      8.4340184399999973      1.5758681699999999
   141   1      1.0596062399999999      7.7622859099999983      4.4989941699999996
   142   1              2.62376516      8.7008397499999983      6.1661686900000001
   143   1      2.8075847999999999      7.5941234799999995      8.4879397300000008
   144   1      4.4285957500000004       8.514925439999999      10.137528700000001
   145   1              1.92541717      7.5331884899999988      12.766548439999999
   146   1      2.8054902400000001      2.4301937699999994      12.405433560000001
   147   1      3.0059596999999996      10.835346699999999              1.49526647
   148   1      3.9236426699999996      10.545303099999998      5.1410117199999998
   149   1      1.7697337299999998      9.8947800499999961      8.2440806099999993
   150   1      3.3999976899999997      10.829911309999996              9.92127011
   151   1      2.6271701599999999      11.961732179999997             12.03475171
   152   1              2.35216753      12.057566869999997      3.5728676099999999
   153   1      3.0327522899999999      11.685467229999997      7.0775930699999998
   154   1      4.0528385599999996     0.91776681999999987      5.2336279000000001
   155   1      2.3945648300000002       9.616832539999999      3.5733538599999997
   156   1     0.20749022000000089    0.074691899999999992             12.41438919
