(written by ASE)

147 atoms
1 atom types

0.0               11.400361  xlo xhi
0.0      12.098903999999999  ylo yhi
0.0               12.816801  zlo zhi

Atoms # atomic

     1   1              1.43290563      12.085961879999999      2.6835855500000001
     2   1      5.1366444800000002      4.1874154999999993      9.8861756300000003
     3   1       7.159661869999999       5.709941559999999             12.28219691
     4   1      9.2473271199999996      7.1435795499999983      1.9540190799999999
     5   1      6.7037396400000002       6.668945439999999      1.7837526100000001
     6   1      6.1490608299999998      7.6332921999999979      4.0710415199999996
     7   1      4.9213051600000002      6.3487123699999994              5.92082073
     8   1              6.24541083      5.5010017299999978      7.9374831700000001
     9   1      7.0099577200000001      7.8338450099999983      8.4134064899999998
    10   1      7.9557349000000004      8.0484831299999975             12.77937837
    11   1      8.7905768000000002      10.406599859999996     0.54767297000000004
    12   1      7.4996314399999999       8.977779479999997      2.2719073500000002
    13   1      9.3122137800000004      10.416392139999996      4.6212443099999998
    14   1      5.6956193900000001      8.6648741299999976      6.4093214200000004
    15   1      7.7931153899999996      10.167068629999997      8.9006075899999999
    16   1      5.8737967399999995      6.5393278299999986             10.27710096
    17   1      6.6397666499999994      4.4699864999999983      5.6091596499999987
    18   1      7.9464857200000001      5.8165723199999988      3.7505667300000001
    19   1      8.4176393199999993      4.7703212499999985              1.44181512
    20   1      2.9063161599999998      9.2302814099999981      8.6178396900000003
    21   1      4.9806898400000001      10.741266719999999             11.07899001
    22   1      8.0408624199999998      11.316214559999997      2.7484867500000001
    23   1              6.48381015      11.001194309999997      6.8810559900000001
    24   1               6.1110308      12.045761029999998      9.2018412999999999
    25   1      8.7721244499999997      1.6517703999999995      2.8817442999999998
    26   1       7.621687689999999     0.22298381999999994      4.9979132799999997
    27   1      9.6413892400000005      1.7065989599999996      7.2984349999999996
    28   1              8.17713088      1.4893946499999997             11.68154968
    29   1      7.1185119799999992     0.27358298999999991     0.74399444000000003
    30   1      9.7877193299999998      4.1169724699999994      3.4554083800000002
    31   1      8.3711006799999979      2.5765235299999993      5.2697387400000002
    32   1      7.9442401799999995      3.6132470799999994      7.6155386599999995
    33   1      6.8417694500000001      2.3048372799999997      9.6099673499999998
    34   1              6.45346946      3.3327912199999989      11.936733999999998
    35   1      6.6574352599999997      8.8760901899999958      10.769478449999999
    36   1      5.3483162499999999      9.7025756699999981      8.7524328600000008
    37   1      7.4279384099999994      11.214023889999996      11.255150840000001
    38   1      8.9179227300000008      11.453806059999996      6.9811531600000007
    39   1              9.45431256       8.291379939999997      8.5261272300000002
    40   1      8.3183199599999984      7.0076464799999982      10.420224149999999
    41   1             10.42840809      8.4758962399999991     0.15548642000000068
    42   1      11.209959830000001      10.787825659999996     0.53238344999999998
    43   1      10.570414100000001      9.2811651199999989      2.6060620299999999
    44   1      0.2980642499999992      10.735549839999996      4.5307377200000003
    45   1      7.3916452799999997      6.8047572699999987      6.0618189300000003
    46   1      8.1501549499999992      9.1188314599999991      6.5396260699999997
    47   1      9.1104345700000007      9.3458877699999974      10.941655730000001
    48   1      9.8517390899999988      11.695030739999996             11.39757112
    49   1      10.948288029999999     0.88007215000000061      9.2908289499999999
    50   1      9.9985596799999978      5.1358854099999984      10.033562579999998
    51   1      9.8447086800000001      7.2193850799999995      6.1499745399999997
    52   1      10.750462369999999      7.4636645999999987              10.5169751
    53   1      10.226644129999999      10.619062579999998      9.0101769399999991
    54   1      8.7347846600000008       8.109929039999999      4.2056221499999999
    55   1             10.95504509      5.3786062099999992      1.6498032300000001
    56   1     0.64443857999999965      6.6766663999999993      12.558971750000001
    57   1      8.5382679699999997     0.41603301999999964      9.3367345499999992
    58   1             11.24138389      2.0942154299999998      3.0991844799999999
    59   1      10.037385929999999     0.65597521999999986      4.9257828099999994
    60   1      10.561787560000001      1.9737164599999995             11.56455386
    61   1      9.9701920200000007      2.8901830199999989               1.0674352
    62   1      10.783668909999999      2.9719554499999989      5.4170600699999998
    63   1             10.38830082      4.0765196799999979      7.6878437599999998
    64   1      9.2510944100000003      2.7844097399999992      9.6036815099999995
    65   1      8.8473631099999999      3.8562028999999991             11.90357985
    66   1      11.266842240000001      4.3140313199999989             12.06886838
    67   1             11.04094987       6.961201609999998      3.7529719500000001
    68   1      9.0830756199999989      4.9134706799999979      5.7414506899999997
    69   1      8.6894083299999991      5.9625582799999988      8.0605239599999994
    70   1      7.5503402299999989      4.6685271599999982      9.9423929599999994
    71   1      9.6101552699999999      6.1632784899999979             12.42869889
    72   1              10.3874104      11.843726929999997      2.5814252899999999
    73   1              10.5784743       9.555010989999996      6.5748884900000002
    74   1      3.2264840000000001       8.211577939999998      6.2113142100000003
    75   1      4.9090432199999992      8.4754842199999967              2.08876953
    76   1      3.5005795499999999      1.5667685799999997      5.1633177400000001
    77   1      3.0945170800000001      2.6640636499999997      7.4534585399999997
    78   1              1.97873827      1.3687731099999996      9.3877387399999996
    79   1      1.5700110700000001      2.4506297199999993      11.730198339999999
    80   1      3.5071428999999998      3.8595541399999993              1.28289779
    81   1      2.6990592199999996      4.8298039699999986      3.4659855500000001
    82   1      4.6611635799999993       2.961571709999999      3.2754326300000001
    83   1      1.7725151499999998      3.4475201099999992      5.4009073799999996
    84   1     0.28700128000000003      3.2569222399999993      9.6879323199999998
    85   1      2.2848702799999998       4.816845009999998      12.182681659999998
    86   1      3.8019712000000001      9.4529962499999982     0.10877642999999999
    87   1      1.6880497499999998      6.6877189199999982      2.0978874699999999
    88   1     0.82231675000000004      7.7328336999999978      6.0086582499999999
    89   1      11.141053250000001      6.4171679599999978      8.0807949899999993
    90   1      1.3984734799999998      4.5437684099999993      7.7237487500000004
    91   1      2.7846733399999999      1.5318249299999998     0.87102820999999997
    92   1      3.2881532999999998     0.53675393999999976             11.37765566
    93   1      4.8009976299999995     0.78203282999999979      7.1823729099999998
    94   1      2.3637243300000002     0.28556569999999987      7.0603713299999997
    95   1     0.29404645000000001      1.1092905699999998     0.76722004000000033
    96   1      2.2542408100000002      2.3849434699999992      3.1626614800000001
    97   1      1.0695836599999999      1.0345041699999997      5.0286673300000002
    98   1     0.68083870000000002      2.1589369999999994      7.3742361699999988
    99   1      1.0719949200000001      3.5046906499999992              1.29434542
   100   1    0.098121020000000003      5.3365159699999989      5.6009411900000003
   101   1      1.4140731200000001      8.8949290299999983     0.95077323000000002
   102   1              2.14820038      11.302072519999998     0.39920348999999999
   103   1              1.59449006      10.035306359999998      6.5966359499999996
   104   1      3.0970321099999998      10.205236329999998      2.4052872299999999
   105   1      11.327049330000001      11.899640289999997      6.9446556299999997
   106   1     0.85268493999999984    0.074430479999999882      11.284415360000001
   107   1      3.9032265900000001     0.52181523999999979      2.8500083200000002
   108   1      2.7175600499999999      11.250593369999997              4.70308657
   109   1              2.13515152      6.9063431199999981              8.14324826
   110   1      6.8677845800000004      9.9463781599999965      4.5617699900000002
   111   1      1.0190639500000001      5.6038047299999993             10.12436166
   112   1      4.5884284800000001      11.786562579999996     0.56597547000000004
   113   1      5.9525618299999996      4.3553776599999994              1.35815972
   114   1       5.347103549999999      5.3219318899999983      3.6351452499999994
   115   1              4.18050253      3.9894561999999989      5.5157694800000003
   116   1      3.8150692099999999      5.0266886199999989      7.8474632900000003
   117   1      2.7053238400000001      3.7315312399999989      9.7957938299999991
   118   1      4.7204301099999997      5.2394275299999995             12.18223794
   119   1      4.0078599099999996      2.8823305899999991      11.804197179999999
   120   1      5.4892307999999996      7.5764725099999994             12.61827111
   121   1      3.5423614799999994      7.1761095999999984              3.88006195
   122   1      2.4872666799999994      5.8584583799999983       5.791638869999999
   123   1      4.5606467000000004      7.3703128499999986      8.2620225900000008
   124   1      3.4354652400000001      6.0765621899999989             10.19418638
   125   1      4.2121839899999989      8.3993424399999981             10.61603549
   126   1      6.2924108799999994      9.9386457199999985              0.29867146
   127   1      4.1550660700000002       6.178159589999999      1.6590271000000001
   128   1      4.4109603399999999      1.8389366099999995      9.4822981599999991
   129   1      5.5177870399999991      3.1519796299999991      7.5630582500000001
   130   1      5.9286135599999987       2.112780069999999      5.2806383099999996
   131   1      1.5933544500000001      8.7483455799999987      3.7871498399999997
   132   1      4.3814467300000004       9.453952919999999      4.3944132700000003
   133   1     0.48167618999999995      8.7508129599999958              8.56454117
   134   1      1.2323589399999999      11.095496779999998      8.9711093099999992
   135   1      1.7730166999999997       7.936439459999999             10.57984446
   136   1      2.5371980399999994      10.267137259999998              10.9567759
   137   1              5.62038686      10.797923499999996              2.56718088
   138   1      4.0399103299999997      10.529457629999998       6.744278060000001
   139   1      3.6687420199999998      11.577866929999997      9.0737774200000008
   140   1      6.3467033500000003      1.0840426399999996      3.0246623000000001
   141   1      5.1796336600000004      11.814883389999999      4.8689599799999996
   142   1              7.22867061      1.2602083799999995      7.2934754100000001
   143   1      5.7292424999999998     0.98674617999999981             11.50385913
   144   1      5.2912803400000001      2.0176978999999995              0.99736543
   145   1      7.1648364200000003      3.4821172299999996      3.3061622499999999
   146   1      3.0175711199999995      7.1757461499999984             12.58295961
   147   1     0.15296313000000053      9.7721925899999977             11.05834215
