(written by ASE)

154 atoms
1 atom types

0.0               11.400361  xlo xhi
0.0      12.098903999999999  ylo yhi
0.0               12.816801  zlo zhi

Atoms # atomic

     1   1      1.1934212500000001      11.947040099999999      11.869838380000001
     2   1      7.3604162099999995      2.1903211499999991             10.00777137
     3   1      6.7653432000000002      3.1547827299999995             12.39741607
     4   1      7.5039031399999994      5.4994111199999987      12.777031690000001
     5   1      3.8763017199999998      3.7854364799999991              1.96079571
     6   1      8.3403237199999989      5.6584264299999987      4.2710582300000004
     7   1      7.1721812099999998      4.3460795099999991              6.16249205
     8   1      9.1521992099999991      5.8613775899999991      8.5911413400000001
     9   1      7.9928891399999991       4.516644679999998              10.4749999
    10   1              9.20317556      3.6120963799999992             12.45794119
    11   1      8.2523413199999993      7.8320651899999989     0.40816398999999998
    12   1      7.0825958900000003      6.5061099899999979      2.2828384000000002
    13   1      9.1163190400000005      7.9916176399999994      4.7290764899999997
    14   1      7.9288930400000002      6.6836995599999991      6.5910825300000013
    15   1      9.9010976500000005      8.2465743699999958              9.06885166
    16   1      8.7061740800000003      6.8411034199999987             10.90044138
    17   1      8.4041437400000003      3.5021043399999989      8.1428355000000003
    18   1      9.0190967999999998      10.158559539999997     0.87484809999999991
    19   1      6.4609058700000004      2.0097902399999996      5.7433977299999999
    20   1              5.62521176      1.8067444099999999      1.5726679199999998
    21   1      7.4258322299999993      9.8252630299999986      5.0637212199999997
    22   1      6.2007611799999998      8.5144442299999969      6.9415740499999998
    23   1      5.7956481899999996      9.5604522899999989      9.2744316799999993
    24   1      4.5597407600000004       8.244107829999999      11.158253670000001
    25   1              7.39373507      11.990851579999996      1.3242376999999999
    26   1       6.165946889999999      10.680338559999997      3.0615106999999999
    27   1      5.7569357400000003      11.655144979999998      5.2535808800000003
    28   1      4.5163751400000001      10.343398349999996      7.2965342599999996
    29   1      6.3820276399999996      11.984152119999996      9.7102450600000001
    30   1      5.2983872499999993      10.547721199999996      11.607929499999999
    31   1      8.4948644899999977      1.2796458499999996             12.06589859
    32   1              6.90042665     0.95635089999999989      3.5156238000000002
    33   1      7.7053306699999995      1.1255115099999997      7.7687094800000001
    34   1      8.8703421999999996     0.25244689999999992      9.7824184200000008
    35   1      6.3161008599999988      4.1719079399999979      1.8535375699999999
    36   1      7.5997052700000003      3.3218463899999997      3.8390665300000002
    37   1      7.8460879700000001      8.8363341099999957              2.73241815
    38   1      9.8567191600000008      10.332715629999996      5.2032832200000003
    39   1      8.6605818600000006      8.9926256499999973              7.04612266
    40   1      9.6052520399999999       4.841364969999999      6.2692031100000003
    41   1     0.14546434000000019      6.2812920199999995      8.7128753799999998
    42   1      10.399243329999999      4.9455516199999989      10.569903099999999
    43   1      9.9272227700000002      5.9587631899999991    0.061646039999999999
    44   1      9.5085254499999987      6.9770853499999985      2.3886003100000002
    45   1      10.399520920000001      7.1869758999999984      6.7397649900000003
    46   1      11.120327419999999      7.2722174299999995             11.01411425
    47   1      10.681731470000001      8.2963623199999965     0.51943539000000005
    48   1      10.280704739999999      9.3073866099999982      2.8772545100000002
    49   1     0.40637060000000047      9.6291248099999969      11.343194299999999
    50   1      9.4289666600000004      9.1536230599999975             11.37325834
    51   1     0.02649037000000027      10.634480229999996     0.91631571000000001
    52   1      10.557771260000001     0.59856546000000188      5.5453569900000002
    53   1      9.4385586299999993      11.328006869999996              7.55774904
    54   1              11.2514486     0.60206373000000035      9.8115216800000002
    55   1             10.76130131      6.1417894699999982      4.3755323800000001
    56   1      8.7545983199999995      4.6334837999999987      1.9476852099999999
    57   1             11.17699859       5.122591299999999      2.0320538199999998
    58   1     0.69772967999999924      3.0530959999999991             10.24618006
    59   1      8.2441825099999999      10.050154539999998      9.3926841199999984
    60   1      7.0100607199999994       8.719694579999997              11.2536393
    61   1      8.6094725400000005      11.160571169999997      3.2431188699999995
    62   1      8.1530293599999997    0.090884250000000583      5.5294718500000002
    63   1      7.0092205699999992      10.814558699999996      7.3868862599999998
    64   1      7.7629529199999991      11.010181709999996      11.681570900000001
    65   1      9.7606459700000006     0.41320539999999994              1.23622491
    66   1      5.4047136499999997      8.3856904599999957                2.639316
    67   1      9.3024686899999995      1.4348871399999998      3.5472889999999997
    68   1      10.915995110000001      1.7249485699999996             12.13895284
    69   1             10.46379443      2.7660976499999994              1.63907435
    70   1      8.0385913700000007       2.281782489999999              1.54865506
    71   1      10.015734989999999      3.7944358999999994              3.94512369
    72   1      8.8620174499999997      2.4757810299999989      5.8425837500000002
    73   1      10.823920129999999      3.9532882699999989      8.2560183800000004
    74   1      9.7125258100000007       2.603647239999999      10.145217580000001
    75   1             10.09776227      1.6118397599999996      7.8383596000000004
    76   1      6.5784801999999996      9.7183031399999962     0.74956142000000003
    77   1      6.2827395299999989      6.4499407799999986      10.813752129999997
    78   1      7.4716228399999993      7.7130433199999988      8.9202653000000005
    79   1      2.8321797800000001     0.14409890999999997      7.5969669399999988
    80   1              2.20062567      1.1126955399999996      10.002903659999999
    81   1               1.4886998      3.2525194799999992      1.7177846100000003
    82   1     0.32083515000000001      1.9299726299999997      3.6484084700000001
    83   1      2.7340479200000001      2.3933795799999995      3.7135461599999999
    84   1      1.5846200199999998      1.0832769799999997      5.6430922299999997
    85   1      3.4158449000000002      2.7476862699999991      7.7257924199999994
    86   1      1.1105073899999998      2.0525523099999989      7.9527136599999997
    87   1      1.9190672999999998      2.2142749499999996             12.25683317
    88   1              2.20476049       5.624159859999998      2.1532667600000002
    89   1              1.01754236      4.3070188199999979      3.9880238699999997
    90   1              1.79590198      6.6285443999999982      4.5026085299999998
    91   1      2.2189786800000002       3.475336159999999      5.8899184900000003
    92   1      4.2831153100000003      4.9108759199999978      8.3956315099999994
    93   1              3.19277787       3.442468359999999             10.31551127
    94   1      2.0219970699999998    0.035103189999999992      3.3486747000000001
    95   1              3.66906314     0.38262114999999991             11.91827342
    96   1              1.51696355      10.878688299999999      9.4811808699999993
    97   1              0.86772578      10.829094329999998      5.2193705499999998
    98   1             11.00439195      11.668082499999999      3.2384717599999999
    99   1     0.42201214999999997      11.828031959999997      7.4979534900000004
   100   1     0.76005396999999986      0.8925665399999998              1.34662551
   101   1     0.22247660999999999      4.0845296999999983             12.55119333
   102   1      1.8214826699999997      4.4196895199999986      8.3733534600000006
   103   1     0.95351074000000002      6.4408376799999987     0.16769609000000049
   104   1     0.16145997000000001       8.461064529999998      4.9123279899999996
   105   1      2.6279586899999998      4.6171658599999992              12.6515468
   106   1     0.63129775999999993      5.3725923399999989      6.3884445199999993
   107   1              1.42215578      5.3936884799999989             10.65552123
   108   1      1.6874768499999997      8.7797375399999975     0.56487262000000005
   109   1      2.5500495499999998      8.9492993499999969      4.8659208899999999
   110   1      11.084031300000001      9.5019452899999983      7.1832002400000006
   111   1     0.89859820999999995      8.5702898399999974      9.0693170799999994
   112   1      2.4500097300000001      11.111583499999997      1.0230397200000001
   113   1      1.2830016900000001      9.7960163599999976      2.9079712199999999
   114   1      2.5411256799999999      6.7437469199999995      8.6707643900000004
   115   1             10.16645475      11.479270629999998             11.73576227
   116   1      3.3859864200000001       6.930982649999998     0.22728960000000001
   117   1      4.2327950599999999      7.0662636899999987      4.5152350200000004
   118   1      5.1786934999999996      2.8479202299999993      3.8047455699999997
   119   1      4.0050540199999993      1.5342813899999996      5.6550637899999998
   120   1      5.9244648800000004      2.9552273799999997      8.0997594199999998
   121   1      4.3215994999999996      1.2793041999999997      9.1139478900000004
   122   1      4.2161511999999997      2.8177926899999992             12.69354729
   123   1      3.4642297700000002      4.7695503199999978      4.1411026399999997
   124   1      5.9102410799999996      5.1929392699999983      4.1632131899999996
   125   1      4.7594388299999997      3.8934983099999991       6.049658159999999
   126   1       6.734863859999999      5.3668209499999993      8.4538460700000009
   127   1      5.5879770300000002      4.2315914199999991      10.338902089999999
   128   1      5.0777936700000001      5.0833658899999978             12.68998695
   129   1      5.8249561200000004       7.396599499999998     0.31874383000000001
   130   1      4.6498507399999998      6.0836560999999989      2.1976081500000002
   131   1      6.6709999499999997      7.5156280699999991      4.6082243500000004
   132   1      5.4753407899999997      6.2119908799999983      6.4890812999999996
   133   1      3.1660409299999999      1.3359221699999997      1.4766128199999999
   134   1      5.2359053900000001      2.0449719299999991      10.881440420000001
   135   1      5.4129099900000002     0.50369859999999989      7.3445891500000009
   136   1      4.4518536299999996     0.49823186999999991      3.4126635900000002
   137   1      3.0410131599999999      5.7262297399999991      6.4369257500000003
   138   1      5.0234820299999994      7.2204499299999982      8.8178277000000005
   139   1      3.8067283399999994      5.9118774599999986             10.69729225
   140   1      4.1316572499999999      9.2455802899999959     0.67632769999999998
   141   1      2.9617109099999994      7.9394683599999993      2.5542456699999998
   142   1               4.9744484      9.3625990299999966              4.97127461
   143   1      3.7143598500000001      8.0288729799999956       6.828888759999999
   144   1     0.53523595999999996      7.4612960999999984      2.5139377500000002
   145   1      3.3128715500000001      8.9939096499999973      9.1701085500000001
   146   1      4.8626242499999996      11.555881909999998      1.1527024699999999
   147   1      3.7163492499999995      10.259080069999998      3.0126400499999999
   148   1      3.3035811799999997      11.274316299999997      5.3264142699999999
   149   1              2.08113269      9.8586505899999981      7.1756315200000005
   150   1      3.9613585199999997      11.200393289999996              9.66395099
   151   1      2.8349621599999999      10.087256189999998             11.53194951
   152   1      6.1832630599999989     0.61035925999999985      12.291871230000002
   153   1      2.1258784400000001      7.7489448199999984      11.063499930000001
   154   1      11.264544119999998      2.9715127099999989      5.9549313899999996
