(written by ASE)

143 atoms
1 atom types

0.0               11.400361  xlo xhi
0.0      12.098903999999999  ylo yhi
0.0               12.816801  zlo zhi

Atoms # atomic

     1   1      1.8177355399999997     0.79544586999999978             11.61372113
     2   1      6.8914212600000004      9.9831664199999981      8.3289345400000006
     3   1      5.3348920099999999      8.7018860899999968      9.7448038599999993
     4   1      6.5147177999999997      9.7009915999999965             11.89700547
     5   1      7.3067485899999989      10.331320019999996      4.7648407600000002
     6   1      8.4325799799999981      11.296789009999998       6.947825299999999
     7   1              5.63626644      11.349602779999998             10.10689792
     8   1      5.7436337100000001      9.0105828099999972      6.1604463899999997
     9   1      5.2002831299999999      10.991570749999998     0.91030038000000002
    10   1     0.26784674999999936      11.639053949999997      0.1997807799999991
    11   1      9.5224215500000007      2.5594237099999995     0.20990444999999999
    12   1      7.9327624099999987      1.2293473099999999      1.6545860999999999
    13   1      9.0541747600000004      2.1908322099999995      3.8404404300000001
    14   1      7.5185214199999999     0.85285731999999981      5.2145238200000001
    15   1      8.6009317299999992      1.7668310299999996      7.4588662899999996
    16   1      8.8775761099999997      11.657178049999999      3.3992642300000004
    17   1      9.5536334999999983     0.17454998999999996      9.1147567299999999
    18   1      8.6090305100000002       9.004611409999999                2.937926
    19   1      6.2734196399999993      7.0707851699999988      11.469882520000001
    20   1      5.8239376399999987      1.8152479299999997             10.57450455
    21   1      8.2748418800000003      1.4905724199999997      10.920995270000001
    22   1      7.2357085799999998      5.4300333799999994     0.35056138999999997
    23   1              5.68695518      4.1146251799999982      1.7375987299999998
    24   1      6.8472098099999998      5.1074649599999988      3.9020084000000002
    25   1      5.2875266099999996      3.7951026899999989      5.3207069999999996
    26   1      7.4649128300000003      8.0607886599999983     0.78839941000000002
    27   1      6.4233773099999993      4.7802887799999993      7.4912238000000011
    28   1      6.0427765499999992      4.4408253599999981             11.03729105
    29   1      5.9223911399999993      6.7330468599999982      2.1688304899999999
    30   1      7.0634808699999994      7.7026724699999987      4.3350674400000004
    31   1      5.5105486899999994      6.4018533799999986      5.7406377199999996
    32   1      6.6586754499999987       7.400118609999998      7.9112470699999999
    33   1              5.09830951      6.0857241799999979      9.3191921299999994
    34   1      4.8780933699999993      3.4716693799999994      8.8771216499999994
    35   1      6.1984632899999994      2.1411907799999996      7.0718895299999991
    36   1              10.7490969      1.1484978299999997      11.262561789999999
    37   1      8.1841081899999999      3.8340755399999997              2.04980289
    38   1             10.89561703      10.969010379999999      7.3094582000000008
    39   1      8.0452496700000005      10.996272379999997             10.49561068
    40   1      7.6801157099999999      10.682232569999998              1.25228742
    41   1             10.36270648     0.87486081999999976      2.0209354300000002
    42   1      9.9743410299999997     0.53047562999999986      5.5805554199999996
    43   1             11.11520067      1.4851124799999995      7.7521196300000002
    44   1      9.8136285900000004      10.061982929999996      5.0690655400000004
    45   1             10.60445792      3.4830600799999991      2.4427804199999996
    46   1      9.8294303700000007      2.8145177299999991      9.5653056599999999
    47   1             10.83690279      6.0809221299999994      2.8684036100000001
    48   1      10.434954989999998      5.7505124799999985       6.444235449999999
    49   1      10.036403610000001      5.4270338799999989      9.9971376799999998
    50   1             10.66985246      8.3671662199999979      6.8538611700000001
    51   1             10.27114634      8.0409136399999976      10.439539079999998
    52   1      10.179969699999999      3.1170372799999995      6.0456825199999997
    53   1      9.7792460899999991      5.1742134299999991     0.60559677000000001
    54   1      9.0022459799999996      9.3949162699999977      12.246711729999999
    55   1      9.3603407500000007      9.6578474099999987      8.6905184299999991
    56   1      9.2889617299999987      4.7794766899999992      4.2751998699999998
    57   1      7.7399232499999995      3.4614358899999993      5.6818514000000002
    58   1      8.8920244900000007      4.4469166199999988              7.83845349
    59   1      7.3525461500000002      3.1569542799999994      9.2248132599999995
    60   1      8.5370417599999993      4.1165214399999988             11.36193508
    61   1      8.4197780999999985       6.426594869999998              2.47094075
    62   1      7.8097424299999991      8.3826524699999982             10.08864926
    63   1      9.5191522099999997      7.3864097099999988      4.6968444800000002
    64   1      9.1237995499999993      7.0700165799999981      8.2622936100000004
    65   1      7.5746314999999997      5.7652553199999979      9.6517099300000009
    66   1      8.7570502399999999      6.7527053399999986      11.795632189999999
    67   1             10.00401443      7.7795185999999985      1.0404103600000001
    68   1      11.061701489999999      8.6666864299999968      3.3043414900000001
    69   1      8.2277577599999994      8.7142791099999979      6.4894188000000002
    70   1      7.9724188199999988      6.0847170599999991      6.0975941499999999
    71   1      10.509295310000001      10.650323749999998              10.8568984
    72   1      5.0588534999999997      1.1869861199999998      4.8848222200000002
    73   1      5.4353638899999988      1.5018956299999997      1.3299706499999999
    74   1     0.98014568999999996      7.3776598099999982      1.4780177800000001
    75   1      2.1252847099999999      8.3358939399999983      3.6476638800000001
    76   1     0.58208495999999987      7.0404602699999979      5.0421892599999998
    77   1      1.7289394499999999       8.020019569999997      7.2113294700000008
    78   1     0.18210364000000001      6.7196049399999982      8.6143122999999999
    79   1               1.2445096      7.6349233199999995      10.881545389999999
    80   1      1.0121300900000001      5.0267972999999992             10.44565332
    81   1              2.48422593      8.7122997899999977              0.13149975
    82   1     0.81102119999999989       9.664138089999998              5.46273944
    83   1      1.9583346799999999      10.623607639999996      7.6416711799999995
    84   1     0.41646788000000001      9.3120831799999984      9.0369546799999991
    85   1              1.51024347      10.244463599999998             11.25793028
    86   1      2.3119303100000002      10.973743679999997      4.0964817099999999
    87   1      3.5057692899999995      11.952392739999999      6.2615760700000003
    88   1      3.6572136299999998      9.6749430499999978      2.2886169999999999
    89   1     0.64702739999999992      11.925716679999997      9.4626789999999996
    90   1      11.359502990000001      4.1195134899999992      8.1754158100000005
    91   1     0.34146262999999993      4.4292293099999984      4.6286734899999997
    92   1      1.1848423800000001      9.9970141699999964              1.94472997
    93   1      1.0331451199999999     0.18373473999999948      5.9180364499999998
    94   1              1.35348929     0.45985272999999993      2.4352125600000001
    95   1              2.19862285      1.1478863199999998      8.0903622800000008
    96   1      4.2829968300000001     0.50415715999999988             11.97055976
    97   1     0.50962867000000001      2.1266651399999996     0.62634705000000002
    98   1      1.5026125199999998      5.4211321499999992      6.7893604099999996
    99   1      1.6576333699999999       3.114354179999999      2.7940837799999998
   100   1      1.2665371599999999       2.802416819999999      6.3723909900000004
   101   1     0.88006382000000005      2.4595133999999992      9.9048190900000002
   102   1      2.0126099800000001      3.4073650399999997      12.059941909999999
   103   1      2.2594097199999998       6.054946919999999      12.509942630000001
   104   1      0.7498678299999999      4.7514354899999995      1.0463849599999999
   105   1      1.8913504499999998      5.7252187699999988              3.21272263
   106   1     0.10914934999999999      1.8464070199999998      4.2059742399999998
   107   1      6.6098426799999999       2.512996049999999      3.4790053099999998
   108   1              3.87980393     0.19330004999999995      2.7330085400000002
   109   1      6.7422488700000001     0.19869300999999995      12.338389319999999
   110   1      3.7825487499999997      7.3900403299999988      11.142252210000001
   111   1              4.96796506      8.3815180899999984     0.45987587000000002
   112   1              6.13658416      9.3533997799999984      2.6194053899999998
   113   1      3.2753812500000001      9.3302052399999962      5.8117729200000001
   114   1      4.4078777799999997      10.288675409999998      7.9944333899999993
   115   1      2.8392894499999999      8.9715023499999962      9.4263667800000004
   116   1      2.6015698299999999       6.380442659999999              9.01656631
   117   1              4.04587656      10.023200769999997      11.544139599999999
   118   1      5.9727105499999995      11.621347399999996      6.6056533000000002
   119   1      3.1066310299999995      11.581402549999996      9.8187308400000006
   120   1      2.7328732099999997      11.315101919999998     0.56914805000000002
   121   1      6.3850191900000004      11.990072919999998      3.0574286800000001
   122   1      9.2066534699999991      12.001620649999998      12.678402910000001
   123   1      6.9911065199999998      2.8057342199999997      12.740066580000001
   124   1      4.8188603900000002      10.663543639999997      4.4372680999999998
   125   1               4.6849276     0.81631338999999992      8.4310664099999997
   126   1      4.1779623099999998      7.6956685499999979      7.5798430899999998
   127   1      4.5956372499999993      8.0291353899999987              3.99539497
   128   1      2.9452300399999998      1.7820054299999994      1.0014419299999999
   129   1      4.1340920399999987       2.809716589999999      3.1450634700000002
   130   1      2.5873252199999999      1.5078701699999995      4.5475000699999999
   131   1      3.7372496099999997      2.4831128699999994      6.7196064800000004
   132   1      3.3503176199999998      2.1230141299999992      10.235982679999999
   133   1      4.4948709500000001      3.1018802699999997             12.40406091
   134   1      3.0487711099999997      6.7173212699999985      5.3853919899999996
   135   1      4.7392103299999997      5.7428389099999979    0.023928100000000001
   136   1      4.3698269300000003      5.4148638099999982      3.5630458900000002
   137   1      2.8154814599999995      4.1100098799999989      4.9676457899999988
   138   1      3.9564650299999995      5.1029823599999986      7.1488322599999998
   139   1      2.4087383199999999      3.7974640899999992      8.5480227800000002
   140   1      3.5495762700000002      4.7530954599999991      10.702932730000001
   141   1      3.4400600799999994      7.0455056199999984      1.8332352000000001
   142   1      3.2066034299999999      4.4127130899999987      1.3991714099999999
   143   1      10.147235429999999      10.344487699999998      1.5869135299999999
