(written by ASE)

132 atoms
1 atom types

0.0               11.400361  xlo xhi
0.0      12.098903999999999  ylo yhi
0.0               12.816801  zlo zhi

Atoms # atomic

     1   1      0.5444277099999999      11.514192669999998               4.2741175
     2   1      8.5723319799999995      6.2751470599999983      4.2744854600000002
     3   1      9.4916498899999997      7.7174141699999979      2.1140430299999999
     4   1      7.9799391199999992      6.3026181599999989     0.31984948000000002
     5   1      8.9422640799999993      5.1621815399999988             10.98878416
     6   1      7.8779764999999999      3.8624227099999993      9.0091008299999995
     7   1      9.6906147199999992       6.284767379999999      8.7822002099999992
     8   1      7.9966596999999995      3.8070223899999993              4.56836938
     9   1      9.5315852200000002      5.1408907399999988      1.9914752399999998
    10   1      7.9986854999999988      3.7049063899999997              0.23379496
    11   1      8.9980889899999976      2.6075993399999997      10.894591269999999
    12   1              7.44658658      1.3197835999999996      9.1467829599999995
    13   1      8.8192160499999996      2.8629212699999993      6.7945194899999999
    14   1      7.0875836999999997      1.4519379299999995      5.1358211599999999
    15   1      8.9151452300000003       2.686907989999999              2.39095989
    16   1      7.2146052000000003      1.3377035099999997     0.81383031000000006
    17   1      8.0301802700000007     0.31192522999999989      2.9757877700000002
    18   1      6.0445095399999991      12.088713359999996      7.3157417599999999
    19   1      4.5551485400000002      10.643835609999996      5.5167401700000003
    20   1      6.4398387299999991      10.996645129999997      1.1738985799999999
    21   1      6.6749994699999995      10.012321569999996             11.44403964
    22   1      5.0646650500000003      8.5655353699999974      9.6055639300000006
    23   1      6.0935453299999995      9.4995431699999973              7.17404741
    24   1      7.0233045299999999      8.3588764099999988      5.0286425100000001
    25   1      7.9713367000000002      9.8245755499999969              2.89207634
    26   1      5.5336720899999996      8.5542816999999989     0.85905919999999991
    27   1      6.4457618700000001      7.4730067699999987      11.449157189999999
    28   1      4.8406736199999996      6.0250792099999986      9.6725238499999993
    29   1      8.3297448099999993      7.3139186599999979      6.9169694399999999
    30   1      6.0774206399999997      5.9561687699999979      4.6968735700000002
    31   1      10.889720540000001      7.5150564999999983      6.3710812900000002
    32   1      7.0340388699999998      7.3984234099999995              2.54639375
    33   1      7.2729858700000003      6.3391442799999993      9.2611369000000003
    34   1      8.0087770599999999      8.8710684199999967     0.39670846999999998
    35   1    0.092010680000000247      11.506317269999998     0.20119216000000001
    36   1      9.9752078799999992      11.253889369999996      8.5957108600000005
    37   1              0.56371262      8.9425461699999964      4.1760597400000004
    38   1      10.490635190000001      9.1450187399999976      12.760933300000001
    39   1      9.2481751499999998      10.211033599999999             10.85863325
    40   1             10.08495714      8.7469369799999956      8.5848207700000003
    41   1      11.038621709999997      6.5615694599999985      3.8132884099999997
    42   1      10.447064879999999      6.5818305799999992      12.719813970000001
    43   1             11.38425421      5.3899326999999992      10.573807690000001
    44   1             10.77110368      4.0806657899999985      8.3842013800000004
    45   1     0.74318609999999952      6.4949585499999989      8.3178659400000008
    46   1       9.816220539999998      5.1785293299999982      6.2332162999999996
    47   1      10.517158459999999      3.9787813599999997             12.62889803
    48   1     0.16051262000000094      2.8463482499999997             10.45341425
    49   1      9.9860181899999994      1.6806070599999998      8.6681081899999999
    50   1    0.068170909999999946      3.0508303999999997      6.1805428600000001
    51   1              9.67800145      1.7201434399999995              4.62932963
    52   1      10.660859919999998      4.0454249499999992      3.9831145599999997
    53   1      9.8292272599999997      1.5505008699999996     0.24085342000000001
    54   1             10.96261732     0.55875968999999981      6.4721371399999992
    55   1      10.604561659999998     0.56984786999999992      2.4558382700000001
    56   1      8.4967768899999996     0.32881819000000251      6.8712010200000009
    57   1      7.0216848599999988      10.961053629999997      5.1082068500000002
    58   1      8.9626895599999994      11.257291799999997     0.74299583000000002
    59   1      8.0745539799999992     0.28272682000000104             11.45520567
    60   1      7.6036342899999987      8.8603944499999958      9.1396028200000003
    61   1      8.5657545499999994      9.8463516799999962      6.8037161199999998
    62   1      9.4910190500000002      8.6746231999999974      4.6149336300000003
    63   1      10.442394650000001      10.098495359999996      2.4775826900000002
    64   1      8.9316103699999996      7.6988346199999986      10.968626560000001
    65   1      5.5367535599999993      5.9576573399999981     0.74107325000000002
    66   1      6.5033860099999989      4.8807944899999995      11.334744329999999
    67   1      5.2457520400000002      3.5029792599999992      9.5017846699999993
    68   1              1.85107081     0.69233925999999979             10.29400927
    69   1              3.66886125      2.2624517699999998      7.7264486400000001
    70   1      2.0446635999999998     0.84924519999999992      6.0295748400000004
    71   1      3.6168000199999994      2.1491111299999996      3.4827082799999998
    72   1              1.84896499     0.78710957999999975      1.9066353100000002
    73   1              3.57026552      11.787387549999998      7.6732973800000002
    74   1      3.0126694700000001      11.794771929999998      3.8609678499999998
    75   1     0.39646727999999992      10.405971549999997      10.334765819999999
    76   1              1.09634728      11.510829549999997      8.1327996999999996
    77   1      11.027085070000002      10.081369189999998      6.4024576700000004
    78   1      1.4977823100000001      10.360043679999997      2.0221112799999998
    79   1      1.5930582599999998      9.3691426999999958      12.290563479999999
    80   1    0.034750040000000003      7.9132229099999982             10.53662982
    81   1              1.16964545      8.9846628199999987      8.1445819000000004
    82   1      2.0138223499999999      7.7825439299999983              5.88792179
    83   1              3.03505929      9.2151404199999991      3.7399747199999998
    84   1     0.56057184000000004      7.9829059299999985      1.6672046199999997
    85   1      1.5267490399999999      6.8065826199999986             12.28840948
    86   1      3.2206783999999997      6.7172066199999989      7.8139778399999988
    87   1      1.0026881599999999      5.4063299899999979      5.6790455399999997
    88   1      2.0999240700000001      6.8235862399999991              3.37280018
    89   1     0.60654646000000001      5.4079116699999989              1.56536575
    90   1      1.6093926099999998      4.2230069499999994             12.19955423
    91   1      2.0030345600000001      4.3429992199999994      7.8266078800000001
    92   1      1.9146404400000001       4.264608909999998      3.4151573800000001
    93   1     0.19079399999999996      2.8957960299999996      1.8207780899999999
    94   1      1.0774479199999998      1.7439774899999996             12.50766417
    95   1      1.1213549300000001      1.9559461099999997      8.1979573699999992
    96   1     0.93294985999999991      1.9392195799999996      4.0462878399999997
    97   1      3.7354448699999998      1.9492948599999995      11.926696919999999
    98   1      2.8576639099999994      3.0957614899999992      1.2556970000000001
    99   1      4.5088837799999997      4.5149771499999991      2.9184903699999998
   100   1      2.7184081600000001      3.2822491399999989      5.6157195399999997
   101   1      7.2119621599999997       4.952807449999999      6.7823404700000003
   102   1              5.35594868       3.533145999999999              5.11278934
   103   1      7.0467267099999997      4.8112697299999985      2.4392521700000001
   104   1      5.4517242100000001      3.3796806099999994              0.73052275
   105   1      6.3998436300000003      2.2998500699999997             11.37433968
   106   1      4.6464170600000001      1.0040427299999999      9.6682312499999998
   107   1      6.2358441099999995      2.5580621399999997      7.3039797700000006
   108   1      4.5636628899999998      1.1315576799999998      5.6023497899999999
   109   1      6.2523211700000001      2.4191786999999989      2.9481620300000002
   110   1      4.5308246899999993      1.0128971499999995      1.3294794299999999
   111   1      5.5027726099999992   0.0051007099999999979      3.4299017799999998
   112   1      2.6458277300000002      11.718065459999996             12.52073122
   113   1      2.9371361899999995      10.553667209999997      9.8243594099999996
   114   1      2.0844333900000001      10.358501989999999      5.9522804899999997
   115   1      9.4874889899999992      11.249131929999997      4.7001730200000003
   116   1      3.9615390799999997      10.634008479999999              1.65610671
   117   1              2.55657968      8.0985243399999973             10.06606459
   118   1      3.6228619100000001      9.1995119499999962      7.6140599899999994
   119   1      4.5264767499999996      8.0547869699999985      5.4221990299999998
   120   1      5.5183024400000003      9.5084347099999977      3.3345947699999998
   121   1      3.0373844499999993      8.2486574799999985      1.2386726800000001
   122   1      3.9959652700000001      7.0794568199999981             11.88347476
   123   1              2.42041846      5.6000373299999984             10.10750485
   124   1      5.7526865899999997       7.015078739999999      7.3498524499999993
   125   1      3.5565832500000001      5.6683841999999984      5.1695652900000004
   126   1      4.5631712699999989      7.0978416499999986      2.9428566900000002
   127   1      3.0774072399999994      5.6533804199999995              1.15344443
   128   1      4.0718201099999991      4.4984195499999995      11.753726589999999
   129   1      2.7034487199999999       3.093963819999999      9.9720529100000004
   130   1      4.6148200399999997      4.6491655199999986      7.3058940200000002
   131   1      4.1072492399999998       9.614798979999998      11.908831449999999
   132   1      10.621946169999999     0.48205912000000084      10.841826619999999
