(written by ASE)

155 atoms
1 atom types

0.0               11.400361  xlo xhi
0.0      12.098903999999999  ylo yhi
0.0               12.816801  zlo zhi

Atoms # atomic

     1   1              1.30846507      2.5139876799999992      6.9703027100000003
     2   1      9.0516093599999987      3.1145720599999991             11.16068958
     3   1      7.6725103499999996      2.7756037999999994     0.56412516000000001
     4   1      6.6337376999999993      3.9341772499999994      2.4862635499999999
     5   1      5.3937988199999998      3.9509721799999991      6.7251732200000012
     6   1      6.8157398300000001      4.7148004599999993      8.7223104800000009
     7   1      6.5939990999999996      3.5815217099999996             11.07704002
     8   1      9.2553818799999998      4.6572895799999987     0.21193078000000001
     9   1      8.2614663200000003      5.8750475599999978              2.14069156
    10   1      5.5878697900000001      5.0755897599999988      4.4048203099999998
    11   1      7.0396845199999998       5.831512479999998              6.40142027
    12   1      5.7825169999999995      5.8959699299999988      10.635311440000001
    13   1              10.6653354      4.9261860799999981      10.781552769999999
    14   1      9.9060749099999992      7.7273288599999983      1.7466915699999999
    15   1      7.1852977400000002       6.896912099999998      4.0930772199999996
    16   1              8.72101419      7.6932564399999981      6.1051678599999999
    17   1      10.052267710000001      1.9131358799999998      9.2586143799999991
    18   1      10.266540669999999      2.9899566599999994      6.8890417599999996
    19   1      8.5815591599999994      1.1720857299999998      7.3126339500000004
    20   1       6.400622639999999       2.723057349999999      4.8237129300000001
    21   1      6.0451384800000003      7.0684334899999994      8.2960863699999994
    22   1      7.4707618499999988       7.768055979999998      10.296098779999999
    23   1      7.2427648700000002      9.2240491599999963             12.20388228
    24   1      6.7136584999999993      10.630405709999996      1.3074045999999999
    25   1      6.4684742000000002      9.4075484399999958      3.6397439999999994
    26   1      7.9406508199999992      10.090290589999997      5.6529215199999996
    27   1      5.2905804099999996      9.4294469499999973                7.893751
    28   1              8.47317827      6.5726297999999987      8.3676455799999996
    29   1      6.7386875599999998      10.169867599999996      9.8835616700000006
    30   1       5.788010429999999      11.763923869999998               3.2449515
    31   1      6.9711718899999999      11.321622579999998      7.5515884199999999
    32   1      3.5853149599999998      1.3828638399999997     0.80818365000000003
    33   1      7.1673333299999991     0.35827019999999987      5.2108663100000001
    34   1      5.9792583700000002     0.45857405999999989      9.4673746399999992
    35   1      7.4979735700000001      1.2885953299999997             11.45666845
    36   1      5.0038600799999999      2.0350224499999996      2.8187883899999999
    37   1      6.0353282399999992      11.540551509999998             11.78768254
    38   1      6.2885670200000003      8.2130207699999964      5.9668802100000002
    39   1      9.8972805800000003      7.2422954299999986             10.29521454
    40   1      9.0408346099999992      10.148225579999997     0.99861647999999992
    41   1      9.2557930600000002      4.2344339299999989      8.7952637199999995
    42   1       1.718678509999999      4.4679506999999994             10.85645141
    43   1             10.73814569       5.426075029999998      2.1938401399999998
    44   1      8.0296584000000006      4.5873511199999992      4.5046437299999997
    45   1             11.14796385      7.2183194699999982      6.1572133400000002
    46   1      8.2208197100000007      5.4192181699999979              10.7259102
    47   1      9.6837986600000008      6.4219664899999982      4.1687737499999997
    48   1              10.1653156      8.4613309099999974      8.0186300399999997
    49   1             10.88041934      12.018450389999998      1.1355607500000009
    50   1      10.357727049999998      9.8217684999999957      2.8187026899999998
    51   1      8.4482788299999996     0.43004122999999989     0.90995364999999995
    52   1      9.8049231499999987      1.3671737499999999      2.8295792299999998
    53   1             10.47964019      4.0945277799999991      4.5599274100000002
    54   1      10.812212180000001      6.4525861099999995             12.66046487
    55   1     0.38118287000000001      9.6740739699999967      1.0775788799999999
    56   1      9.4813712300000006      5.3304124199999992      6.4645475800000005
    57   1      7.8209678799999995      3.4809417299999992      6.8179064800000004
    58   1      9.0602086800000006      3.5921406599999992      2.5257038000000001
    59   1      10.118674009999999      2.3482826099999996              0.59524546
    60   1      8.7436434300000005      8.6544639799999974              3.86846164
    61   1      10.391962589999999      9.6635414499999968      5.6096220800000003
    62   1      7.7150698000000002       8.942343769999999      7.9735517400000004
    63   1      9.1693925899999993      9.6569384499999984      9.9357964299999999
    64   1              8.47490539      11.122221489999996             11.70136638
    65   1      8.3351681899999992      11.249536169999997      3.2780825799999995
    66   1      9.4002839700000003      10.801031799999999      7.6725905799999996
    67   1      9.8382570299999994       8.673928649999997             12.16917308
    68   1      6.0188668599999993     0.90692042999999978               0.8820076
    69   1       8.407986949999998    0.014916639999999998      9.5046945399999991
    70   1      9.9851688500000009     0.82266661999999979      11.566407279999998
    71   1      7.4130748199999994      1.5508497599999995      2.8916879299999998
    72   1      8.8289795799999986      2.2353871599999997      4.9091040599999998
    73   1             11.27149513      1.7502016799999995      4.9768581000000003
    74   1      10.831095069999998             11.62844056      9.6290026799999993
    75   1     0.12504114999999963      2.6388207499999989      11.219410420000001
    76   1      9.5094681699999999      12.016308369999997              5.55873946
    77   1     0.18237113999999996      9.1905382099999979             10.02916572
    78   1      4.8236106699999999      7.4969326899999986      3.9671104199999996
    79   1      8.3132594500000003       6.944773709999998      12.619313180000001
    80   1      2.3259346700000001      1.3104513399999995      5.0793047099999997
    81   1      11.043547000000002      0.6662817099999998      7.3913648099999998
    82   1      1.0726744499999998      0.3303746099999999             11.65401752
    83   1      1.0864773999999999     0.90451266999999991               2.9340769
    84   1      1.5377880399999997      3.6295741499999994      4.6274893800000001
    85   1      3.7513313699999995      2.0621976199999996      7.0599802699999987
    86   1      5.1767887899999998      2.8245697199999991               9.0496599
    87   1      2.7457966799999998      3.2842967399999989      8.9468154599999998
    88   1      2.5859204500000001       2.169107799999999      11.303284830000001
    89   1     0.32047437000000001      4.1918930399999992               0.2661289
    90   1      1.7837965600000001      4.9489369399999994              2.24911599
    91   1      1.9725520700000001       5.623760449999998      8.4779180899999993
    92   1     0.30738882999999995      3.7582145999999992      8.8612910599999992
    93   1      4.3547020899999991      5.5458805999999985    0.030211560000001005
    94   1      1.8931527299999997      5.9930214699999986             12.74209724
    95   1      2.1298522900000001     0.18670317000000214      7.4811341999999987
    96   1      10.856809500000001      11.690936649999996      3.7755525699999999
    97   1      10.958438210000001      10.665343339999998             11.86615759
    98   1      1.8677073999999998      11.118133589999996      9.7488205099999998
    99   1      1.1028822300000001      1.4141290099999997      9.3353168100000001
   100   1     0.14145414000000001      3.1179414399999996      2.5874666300000002
   101   1      10.916827780000002      6.0807318099999987      8.3983300199999995
   102   1     0.96926586999999986      7.3296108799999979      1.8185827800000001
   103   1     0.53049383999999999      4.8571286499999982      6.5228910499999992
   104   1      3.3668011999999994      7.8348313499999991             12.46568508
   105   1              2.68661072      9.2034722199999965      1.5716674499999999
   106   1      3.4082592299999996      6.7981199599999984              1.94894685
   107   1    0.030493929999999999      8.1693557099999978      3.9345376099999996
   108   1      1.1990990800000001      7.9901788899999984      8.1132699200000005
   109   1      2.6105342399999993      8.7175023499999984      10.136639969999999
   110   1     0.92677774000000002       8.189006899999999      12.182377839999999
   111   1      1.9378832199999998      11.616551469999996              1.13995369
   112   1              1.50363022      10.359013689999996      3.4562886999999995
   113   1              3.10584638      11.053489809999997      5.4954423700000001
   114   1     0.42051636999999997      10.346147929999997      7.7715073699999992
   115   1      1.4189205899999999      9.1485820299999965      5.8161410599999996
   116   1      7.4843493399999996       8.233478749999998      1.7300558399999997
   117   1     0.76390544999999999      5.9338329399999994      4.2317250900000003
   118   1     0.91178903999999994      6.7502227699999988              10.3398006
   119   1      3.9754738299999999      3.2015154499999992      4.7272017699999997
   120   1      6.1754615199999998      1.5873757199999998      7.1458292800000001
   121   1      7.5975201500000002      2.3877488999999992      9.1710668000000002
   122   1      5.0411029200000002      1.7241613299999996             11.38649646
   123   1              5.22529735      3.2347051899999992      0.4664082500000003
   124   1      2.7832329200000001      3.7133706699999993              0.34867565
   125   1      4.2334589599999992      4.4485142299999989      2.3633108200000001
   126   1      2.9673891700000001      4.4167683999999978      6.6005052899999992
   127   1      4.3902139399999998       5.179254349999999      8.6174092299999998
   128   1      4.1560587299999998      4.0256852599999995      10.955938310000001
   129   1              6.80757675      5.0916790599999979     0.14777738999999984
   130   1       5.834709479999999      6.3163661899999992      2.0482784000000001
   131   1      3.1867471200000002      5.5767146999999984      4.2824053500000003
   132   1      4.6154219799999998      6.3255255899999989              6.29294975
   133   1      3.3442721500000001      6.3549618899999993      10.534255379999999
   134   1              2.64203046       2.648012249999999      2.6793305599999999
   135   1      3.5593355299999998      11.979430059999999             11.72938716
   136   1      3.5512069799999995     0.93011154999999979      9.4097501500000007
   137   1      4.7532505699999996     0.84532034999999994      5.1604744800000004
   138   1              5.84187469      7.3889483599999979             12.54399821
   139   1      5.0692973099999987      8.6991684699999965      1.6436057399999999
   140   1      2.4228681599999997      7.9699423899999982      3.8709183299999999
   141   1      3.8507936999999997       8.690153279999997      5.8954519000000003
   142   1      3.6198783199999998      7.5374568799999979      8.2086933000000002
   143   1      5.0404492000000003      8.2521522899999962      10.225625880000001
   144   1      4.7093496200000002       9.685650049999996      12.145507930000001
   145   1      2.1843117599999995      6.7878639599999984      6.1831428899999992
   146   1      4.3347597499999999      11.118339679999997              1.23022352
   147   1      5.5143376000000002      10.578315399999996      5.5740171900000002
   148   1      2.8567858199999998      9.9053963699999983      7.8178274300000004
   149   1      4.3043282600000001      10.641911239999997      9.8193475499999998
   150   1      2.1637164499999999      10.142610039999996      12.054045009999998
   151   1      3.3550728799999998     0.14667425000000028      3.1712515400000001
   152   1              4.53855231      11.793247429999996      7.4940574799999995
   153   1              1.14608526      1.8825546699999995     0.66695861000000001
   154   1      4.0382824599999996      9.8871625499999976      3.5657449999999997
   155   1     0.75903450999999988      11.526304529999997      5.6443433399999989
