(written by ASE)

149 atoms
1 atom types

0.0               11.400361  xlo xhi
0.0      12.098903999999999  ylo yhi
0.0               12.816801  zlo zhi

Atoms # atomic

     1   1      1.6460806799999999      11.102636759999999      1.4651481900000001
     2   1      5.7257110000000004       2.789949679999999    0.089455279999998333
     3   1      6.5214110500000002      5.3231853799999982     0.41580436999999992
     4   1      8.7114622500000003       7.018568479999999      2.7485245900000002
     5   1      5.2454747799999994      5.2900971299999986      4.7059867100000004
     6   1              7.41010788      6.9026788299999984      7.0800984100000006
     7   1              3.93842209      5.2023405799999995      8.9976797699999995
     8   1      7.0015080799999989      2.6110035999999996      10.685275770000001
     9   1      7.7691033299999992      5.0516053399999983      11.041218860000001
    10   1      7.0293721999999992      8.8916479499999976      3.1559679200000001
    11   1      6.0096844799999989       7.654684529999999      5.0940709399999999
    12   1      9.2058166000000003      10.499188329999997      5.5671254899999996
    13   1      7.1623618000000002      8.0405893099999961      9.4046861499999999
    14   1      9.5688632200000008      8.4996007199999966      9.4363518099999997
    15   1      5.5260729699999995      9.7518199199999991      1.2157571599999999
    16   1      7.2317184399999999      7.8414803099999988     0.82711444000000012
    17   1      5.5975137199999994      3.3137584299999991      8.6794247299999991
    18   1      9.0771966800000001      5.0088120799999993       6.750554779999999
    19   1      6.9307161099999988      3.4267430699999992      4.3633591799999998
    20   1      4.3402134500000003      9.5446030699999991      5.4405332499999997
    21   1      6.5037333899999998      11.167406079999997      7.8666749399999993
    22   1              5.50189035      9.9185558299999972      9.7632700099999994
    23   1      8.3502056299999996      8.6711116199999978             11.62043457
    24   1      6.1672485999999997    0.015826520000000927              1.64152506
    25   1       5.110679199999999      11.920991379999997              5.87035879
    26   1      7.9065053900000004      10.406924639999998      9.8543121300000003
    27   1      6.5877232299999999      10.537089949999997      11.996934749999998
    28   1      9.6097520299999992      2.7254410499999993      2.0960587500000001
    29   1      6.1489378899999991      1.0746968999999997      3.9708914499999999
    30   1      8.3154467000000007      2.6485164499999994      6.3681500700000004
    31   1      4.8419277000000003     0.94601150999999994              8.24486439
    32   1      8.6503045800000002     0.67195772999999992             10.30071405
    33   1       7.350682449999999     0.88441205999999994      12.478181770000001
    34   1      8.1731227499999992      3.4006792299999993    0.066511539999999994
    35   1      8.7868409199999995     0.38727405000000004              1.67802797
    36   1      6.7732956799999995      10.025691969999997      5.5107848099999996
    37   1     0.25023394999999926      10.972839199999996              5.67409214
    38   1      8.1712318400000008      9.2732610999999974      7.4798934600000004
    39   1      9.4687260999999996      9.3947140699999974      3.2037747899999998
    40   1      8.4454851499999997      8.1369533699999987      5.1298255599999996
    41   1      10.878723900000001      8.6178793099999975      5.2228099300000004
    42   1      9.8443620999999997      7.3728021899999989       7.132635389999999
    43   1      10.672162859999998      7.5869214499999984      11.435351280000001
    44   1      7.9931411299999988      10.196981099999999              1.24365225
    45   1      10.549215050000001      10.691251599999998      1.3246730600000001
    46   1      7.7799776199999995      11.272983399999996      3.5784601999999999
    47   1      10.612842589999998      9.7364329499999975      7.5619060599999992
    48   1      10.237533639999999      11.738087409999997      3.6765308899999996
    49   1      11.081938729999999      1.1174888000000003      10.361176690000001
    50   1      9.9798853300000001     0.74979875999999979              6.02581174
    51   1      10.752774029999999      3.1048631699999989       6.447853620000001
    52   1      10.603062679999999      3.9634084899999995     0.19178842000000124
    53   1             10.37066797      5.1193486899999989              2.47465351
    54   1      9.7472288500000008      8.3693262899999983     0.85532366000000004
    55   1      5.3754966199999998      10.774097919999999      3.5475386200000005
    56   1      10.191779759999999      5.3117479299999983      11.026136340000001
    57   1      10.109888639999999      6.2478289899999995      4.8060225599999997
    58   1             10.30598569      10.850307579999999      9.8906644700000008
    59   1      7.5415582099999989     0.29061556999999966      5.9452585200000003
    60   1      8.9317756399999997      11.626514879999998      7.9265152199999989
    61   1      9.1607523999999998      11.146066199999996      12.105954410000001
    62   1      8.5824785600000002      1.5201216099999997      4.0289323699999997
    63   1             11.01614526      1.9880664199999996              4.13288352
    64   1      7.2675521700000001      1.4261877299999997      8.3194872800000006
    65   1      9.8710783400000004      1.4873879099999998             12.57710267
    66   1      7.9655670299999999      4.6354627099999979      2.3565759700000002
    67   1      9.3533578300000002      3.8819057999999993      4.4156795500000001
    68   1              8.03574126       3.792052599999999      8.7134194600000008
    69   1      9.7048847400000007      1.8743859099999995      8.3619169099999997
    70   1      9.4251079600000001      3.0211375999999994             10.69531769
    71   1      8.9365180599999992      6.0007884999999987     0.31995064000000001
    72   1      7.6865834199999989      5.7767511299999983      4.7294165899999996
    73   1       6.365272019999999      5.6874023799999982      9.0464466899999998
    74   1      8.8135418399999992      6.1543003099999982      9.0804585000000007
    75   1      3.1991547599999994      9.1762122699999988              1.09307241
    76   1      4.7244569299999997       7.575772579999998              9.38773211
    77   1      1.2979219399999999     0.11331245999999998      3.7880957999999998
    78   1      3.4497312600000001      1.6947281699999999      6.2395518299999999
    79   1      11.375286130000001      12.086229659999997      8.0247370999999994
    80   1      2.1478838900000001      1.4751679699999996      10.669102369999999
    81   1     0.92886659000000005      2.1760406099999989      12.784470319999999
    82   1      3.1052977799999999      3.6186352199999989      2.2833870300000001
    83   1      2.4326719099999998      1.2701776299999996              1.86045196
    84   1      2.0536170799999995      2.4473688399999998      4.2260101099999998
    85   1     0.75872441999999984       2.331326939999999      8.4973796499999992
    86   1      3.3540379900000001      2.4157012899999994      12.775445489999999
    87   1               1.6840408       4.454389879999999     0.30639990000000156
    88   1      3.8499925500000001       6.007704669999999      2.6893840400000002
    89   1              0.37903524      4.3509150699999983      4.5325157699999998
    90   1      2.5404343899999997      5.9495228599999992              6.95731754
    91   1      4.2044983399999998      4.0544264399999994       6.670680149999999
    92   1      11.303182280000001      9.8022898799999965      11.859495130000001
    93   1               1.3255789      11.257530159999998             10.03976557
    94   1      1.0203321700000001       1.220998989999998      6.1413461199999997
    95   1             11.30855191     0.88773241999999974               1.8206388
    96   1     0.47358887999999999      12.016428789999997             12.32312333
    97   1     0.66264177999999996       3.222849839999999      2.2389987100000002
    98   1      1.7830727199999998      3.5754539099999989              6.57042518
    99   1     0.48595053999999999       3.489356739999999      10.788314379999999
   100   1              1.41726073      5.5765743399999979              2.61883614
   101   1     0.11169791999999999      5.4737871499999979              6.83287873
   102   1   0.0066708799999999988      6.3583955199999993     0.59709020000000002
   103   1             11.13858813       7.493814399999998      2.9007290800000001
   104   1     0.87981975999999995      7.8461098099999989      7.2400872500000011
   105   1      1.2228811399999999      5.9270131599999978      11.206352649999999
   106   1     0.52436062999999999      9.8649378499999987      3.3281460900000002
   107   1      1.6460385200000001      10.202383809999997      7.6862065299999998
   108   1     0.58969139000000004      8.9134977599999967      9.5821314199999996
   109   1      1.9399171499999999      8.3176127099999988      11.637701059999999
   110   1      10.479457960000001      4.2197729999999982      8.7430107800000005
   111   1      2.9069085700000001      4.0057872799999981               10.934488
   112   1      2.4480189699999997      6.7965476899999979     0.69884754000000004
   113   1              2.18610952      7.9474363599999993      3.0214038300000001
   114   1      5.5120473299999997      4.0852651899999994      2.3535735600000001
   115   1      4.4864510700000002      2.9349683499999997              4.31703876
   116   1      6.6418030499999992      4.5428148199999985      6.7085979099999991
   117   1      3.1646049899999995      2.8018196999999994      8.6502195900000007
   118   1      4.5880808899999987      2.0665425299999991             10.63733394
   119   1      4.1092067200000004      4.8381022999999992      0.3611342700000027
   120   1      6.2794486799999998      6.4900529799999989      2.7398753199999999
   121   1      2.8107794099999999      4.8083130499999989              4.63144914
   122   1      4.9709900999999999      6.4280707299999982      7.0447985499999994
   123   1               1.5123989      4.7141458899999984      8.8795196599999997
   124   1      5.3530487500000001       4.515416639999998              11.0310167
   125   1      4.8586242799999999      7.2581975299999995     0.76082358999999999
   126   1      4.6131754799999998      8.3828926399999961      3.0992335400000002
   127   1      3.5742559399999996      7.1767199699999988      5.0304193100000001
   128   1      5.7398107300000003      8.7928458399999982              7.43367004
   129   1      4.6914127600000004     0.20753154999999995             12.46368713
   130   1      6.2330857799999997      7.0451038499999985      11.427259449999999
   131   1       6.223944229999999     0.20340573999999997             10.27247803
   132   1      5.8834499599999992      2.1839510299999993      6.3160822300000001
   133   1      1.1423761800000001      6.7200503699999992      4.9270531699999998
   134   1      3.3083321599999995      8.3172366999999987      7.3656609199999989
   135   1              2.28601264      7.0824341299999984      9.2849952600000005
   136   1      3.7134874500000001      6.4677884099999989      11.338688980000001
   137   1     0.79905972000000003      8.7370069999999984      1.0361378299999999
   138   1      2.9889076700000001      10.334727339999999      3.3956591999999999
   139   1              1.91900501      9.0944914799999985      5.3279301300000004
   140   1      4.0731797199999997      10.680345649999996      7.7836645600000001
   141   1      3.0431098099999994      9.4348931199999964      9.7148141399999997
   142   1      4.5079083699999991      8.9387712499999985             11.76195549
   143   1      2.6925699600000002      11.452426829999997               5.7619691
   144   1      3.8233450199999996      11.766567549999996      10.139580349999999
   145   1      2.6684758500000001      10.737495879999999             12.05444009
   146   1      7.1510276699999995      2.2494997899999998      2.0410336299999998
   147   1      3.7641090599999996     0.59676623999999989      3.8117277000000001
   148   1      2.4081041500000002     0.45403613999999987      8.1752845099999991
   149   1      11.249747829999999      6.5798330899999993      9.1311186499999994
