LAMMPS data file via write_data, version 22 Jul 2025, timestep = 149, units = metal

199 atoms
3 atom types

0 13.858901 xlo xhi
0 13.423723 ylo yhi
0 13.665593 zlo zhi
0 0 0 xy xz yz

Masses

1 63.55
2 63.55
3 63.55

Atoms # atomic

115 1 1.776720404629103 0.9306773677826874 1.137243642177119 0 0 0
116 1 3.155293169690391 2.271534140312606 2.85762059790548 0 0 0
122 1 1.7760019901237754 3.613120776520915 1.1388448358254237 0 0 0
131 1 0.3984042762161666 2.2721996843975583 2.8576022171287634 0 0 0
23 1 7.289517929081284 3.6131409670521566 4.576314178285448 0 0 0
42 1 7.288772740828579 0.9306931462347888 1.1372624393444135 0 0 0
43 1 8.667123077280635 2.2722285854254824 2.8575807000815105 0 0 0
48 1 7.289518279394616 3.613150486712618 1.138867684074484 0 0 0
154 1 4.532711216408699 0.9307130633135673 1.1365044734555887 0 0 0
155 1 5.91016516993381 2.271549028948455 2.8575827378869576 0 0 0
156 1 4.532740722742949 0.9307106567421214 4.578694024950567 0 0 0
161 1 4.5327245661194056 3.613133827108444 1.1364227240651203 0 0 0
65 1 12.858742301606018 0.93140758653126 1.162372337598066 0 0 0
69 1 12.857752106040149 3.613131264311688 1.1592146064177773 0 0 0
79 1 11.462237040557119 13.053328215542303 2.8576046710887812 0 -1 0
81 1 10.065715110605982 0.9314207270939314 1.1623880660819956 0 0 0
82 1 11.462251905264711 2.2772919394190456 2.8576096497258905 0 0 0
88 1 10.066724253609527 3.6131445113991307 1.1592302245494326 0 0 0
90 1 10.066705157732786 3.613142988004191 4.555951273636656 0 0 0
124 1 3.1553065183565385 4.954721733999614 2.8576220126239553 0 0 0
135 1 0.39841351415675336 4.954047294337614 2.8575969757642676 0 0 0
140 1 3.156438416693435 7.637596924071901 2.857614509162744 0 0 0
145 1 0.3542887883281645 7.654210233049848 13.1337590163374 0 0 -1
179 1 1.7767353354413453 6.295572819270536 1.1372355518690034 0 0 0
185 1 1.781700097406248 8.978825023111902 1.1379948676775702 0 0 0
6 1 7.288781053133377 6.295594599062597 1.1372747163653267 0 0 0
12 1 7.28379938435649 8.978858887529091 1.1380318088301153 0 0 0
25 1 8.667135435536874 4.954069504393066 2.8575862093429176 0 0 0
149 1 4.532725173602235 8.980543064996832 1.13751975018343 0 0 0
162 1 5.910181921268693 4.954735240029555 2.857597786858439 0 0 0
168 1 4.532729691312222 6.295549309664123 1.1365174433470162 0 0 0
169 1 8.658611812918382 7.633726860331913 2.857583808317839 0 0 0
180 1 5.909037235282972 7.637613519588865 2.857590541235506 0 0 0
7 1 11.462269448126325 7.596652967078876 2.8576062824160493 0 0 0
71 1 12.85876591873523 6.294854854936792 1.1623628077980024 0 0 0
89 1 11.462257795858141 4.948981228219605 2.8575992954012666 0 0 0
94 1 10.065727275483985 6.294865504656535 1.1623923795220767 0 0 0
95 1 0.4069383665779671 7.633697457871012 2.8576054614294284 1 0 0
98 1 11.462220869399287 7.654105480573089 13.14404860300284 0 0 -1
102 1 1.781692711861381 11.671131585429512 1.138009019202779 0 0 0
103 1 1.7816834390531233 11.67112961909992 4.577209608788601 0 0 0
109 1 0.4069255592210665 13.01626281944 2.8575956720646474 0 0 0
123 1 3.1525039203509593 13.010503029796848 13.087196167238423 0 0 -1
129 1 1.7817048756571168 8.978823575605137 4.577216847502143 0 0 0
130 1 0.45594353473672977 10.324978144376022 2.857603084694587 0 0 0
146 1 4.53275579076216 8.980544782446032 4.577690136652085 0 0 0
175 1 3.1564310374004436 13.012371795628093 2.8576084111993914 0 0 0
30 1 5.903796920344084 10.325006455162464 2.857588816408618 0 0 0
31 1 7.283799059272326 11.671165227858863 4.577151601749029 0 0 0
37 1 5.909018769368706 13.012397902975913 2.857589283789295 0 0 0
51 1 8.658599778219665 13.016297134402057 2.8575840740389444 0 0 0
100 1 8.60957546123439 10.325009111460833 2.8575807612794617 0 0 0
186 1 7.283808625807189 8.978852894501085 4.577151355912052 0 0 0
192 1 4.532715841726326 11.669444954354685 1.1375154603630129 0 0 0
193 1 3.1616571640791116 10.324980423994852 2.8576070563639413 0 0 0
194 1 4.532737877657083 11.66944128688255 4.57768871052811 0 0 0
13 1 12.831287379874029 9.003178355612329 4.50164014294212 0 0 0
18 1 11.462219326939369 10.32499895345134 13.11922399764983 0 0 -1
19 1 10.093210087618802 9.00321278705498 1.2136158026499426 0 0 0
20 1 10.09316869675263 11.646807122237751 4.501585585380579 0 0 0
54 1 12.831284678925448 9.003181679592894 1.2135705784378867 0 0 0
55 1 12.83126403066973 11.646786477373993 4.501626899304326 0 0 0
60 1 12.831267923640512 11.64678975057551 1.213579789818785 0 0 0
113 1 4.532778444730397 0.9254978433960838 8.007718082132403 0 0 0
117 1 1.7767188706118782 0.930670470546205 4.577968969931581 0 0 0
118 1 3.151915407364489 2.2718120563965507 6.29700652935942 0 0 0
119 1 3.121516134783124 2.2644885873827674 9.69039242817922 0 0 0
132 1 0.3717647457927879 2.2702701524893403 6.26944233825543 0 0 0
133 1 12.838364515407184 3.6131254221292957 7.974260610731996 -1 0 0
137 1 1.7432600001030567 3.6131215501055176 7.986783486488696 0 0 0
150 1 1.775982913846639 3.61312490804224 4.576379656744395 0 0 0
151 1 4.532790780325303 3.613130856562195 8.011643285458836 0 0 0
3 1 8.711417675900105 2.264952591084604 9.690406834218638 0 0 0
44 1 7.288780849318897 0.9306977647893095 4.577914176510297 0 0 0
45 1 8.693752995433535 2.2703016156665954 6.2693795109449795 0 0 0
46 1 7.327767254158107 0.9207535522740202 7.975841621522973 0 0 0
157 1 5.913618803325671 2.2718215037169927 6.296977484908644 0 0 0
158 1 5.944063493774481 2.2644963073763367 9.690393655819898 0 0 0
163 1 4.532752807457083 3.613133176393112 4.578790311006534 0 0 0
165 1 7.322284244012758 3.6131451773091006 7.986759940351131 0 0 0
66 1 12.858748088791685 0.9313934596165377 4.552841817406286 0 0 0
67 1 12.837378873221194 0.9209663007149335 7.965425401686171 0 0 0
70 1 12.857750192135962 3.6131227685580285 4.555997795880036 0 0 0
83 1 10.065690928237458 0.9314234087188796 4.552792751290721 0 0 0
84 1 11.462199549857257 2.2689421535422993 6.254794368329946 0 0 0
85 1 10.086983068437084 0.920978582447528 7.965414426480061 0 0 0
92 1 11.462173666115996 2.2652454889117357 9.690397672992217 0 0 0
1 1 0.3717684485789115 4.955963831261203 6.269450742763754 0 0 0
128 1 1.7377855496662062 6.305516975020229 7.975871403789726 0 0 0
136 1 3.151931132185766 4.954438523048326 6.297012970740594 0 0 0
141 1 1.7767223897798148 6.295569145746576 4.577979261199615 0 0 0
142 1 4.5328045155866254 6.300771986002465 8.007719033032439 0 0 0
147 1 3.1525466306507552 7.639467261470713 6.293583251725657 0 0 0
181 1 4.532763359881897 6.295558753389298 4.578702732335581 0 0 0
8 1 10.065712435541805 6.294869408004729 4.552799683996574 0 0 0
49 1 8.711250116808838 7.654238329622407 6.246949134970232 0 0 0
164 1 8.693760660768447 4.955992099119719 6.269375791387168 0 0 0
170 1 7.2887913667416075 6.295593171429643 4.577916376690135 0 0 0
171 1 10.086997667148859 6.30530948670148 7.96540739809382 0 0 0
174 1 5.913632033453815 4.954448449047379 6.296985362889237 0 0 0
182 1 7.327781123885311 6.305535189029133 7.975838348653467 0 0 0
187 1 5.91301546033126 7.639485812142438 6.293549555905539 0 0 0
2 1 10.086009464057387 3.6131411890343412 7.97424655309021 0 0 0
9 1 11.462204619873694 7.654107449580108 6.236745270594312 0 0 0
14 1 10.093193965800133 9.003207269712059 4.5015719876974 0 0 0
75 1 0.35428327993978664 7.6542114237760215 6.247033177418114 1 0 0
91 1 11.46220189278948 4.957319135175606 6.254800576240143 0 0 0
96 1 12.858760216179686 6.29484232507139 4.552849202815548 0 0 0
104 1 0.352616337163756 10.32498287079159 6.244211059141385 0 0 0
105 1 1.73601460682546 11.664322660602796 7.97109336724623 0 0 0
110 1 1.7377787236672242 0.9207279498250177 7.975876164211923 0 1 0
126 1 1.7360259420824447 8.98564619486523 7.971092362044453 0 0 0
173 1 3.152528452580182 13.010504529951026 6.293575917523565 0 0 0
195 1 3.1522676299086627 10.32499322023273 6.291282285754587 0 0 0
21 1 8.712896128587207 10.325008662578195 6.244126518684075 0 0 0
27 1 7.32953023996434 8.985670337563302 7.9710508618767815 0 0 0
32 1 5.913272424263 10.325008224394123 6.291247144108559 0 0 0
33 1 7.32951968074105 11.664343925846328 7.971056835003344 0 0 0
38 1 5.912996916911414 13.010520152626665 6.293548185359275 0 0 0
77 1 8.711232189344585 12.995780006106163 6.246954263546544 0 0 0
188 1 4.5328022572867575 8.98431986514277 8.005885666849906 0 0 0
196 1 4.532787151880852 11.665666828320882 8.005888307707403 0 0 0
15 1 10.08539971754726 8.984088044541583 7.971367791494059 0 0 0
22 1 10.085393581086203 11.665924281411058 7.971364346597608 0 0 0
56 1 11.462199630243893 10.324997937415192 6.261571462289062 0 0 0
57 1 12.838967371896755 11.66590689931289 7.971385527489481 0 0 0
61 1 11.462192045432317 12.995884050443976 6.236733990439335 0 0 0
73 1 12.838966876329398 8.984067342192958 7.971393346033248 0 0 0
99 1 0.35427206006614675 12.995754973143912 6.247019606701111 1 0 0
114 1 1.7377585883573756 0.9207333508739658 11.404901947927398 0 0 0
121 1 0.37176829665400524 2.270278607766035 13.111354559778023 0 0 0
134 1 1.7432561290613005 3.613132203558377 11.393994056883164 0 0 0
139 1 3.1519112410967836 4.954438211568184 13.08377348208507 0 0 0
160 1 3.1519013455507183 2.271810241396871 13.083769720157125 0 0 0
26 1 5.91359542929883 2.271837956600953 13.083821939128173 0 0 0
41 1 7.327751211166012 0.9207565206049858 11.40497215497647 0 0 0
87 1 8.693752895366101 2.270303428149599 13.111410073269061 0 0 0
120 1 4.532788106532628 3.613134097506801 11.369147558998668 0 0 0
153 1 5.912964431346789 13.010525334070403 13.087239467842707 0 -1 0
159 1 7.322273202762116 3.6131477879468767 11.394050571748169 0 0 0
167 1 8.693757566972849 4.955997994585576 13.1114151189159 0 0 0
178 1 5.913602416319198 4.954457344204509 13.083818729850504 0 0 0
5 1 11.462233060550393 4.95732743635791 13.125985258085977 0 0 0
47 1 10.086991634033522 0.9209834670563094 11.415398371704132 0 0 0
64 1 12.837389265815213 0.9209668232544233 11.415357097758614 0 0 0
68 1 11.462226749624081 2.2689516024612075 13.12599080621056 0 0 0
80 1 8.711235458366838 12.995788897022834 13.133830214938198 0 -1 0
86 1 0.3540813103620611 2.264925613396182 9.690380564567608 1 0 0
93 1 0.3717790422672165 4.955967308128025 13.11135349785473 1 0 0
127 1 0.35408597124603963 4.961322045022008 9.690380522555168 0 0 0
138 1 4.53278644453438 6.300764423941501 11.373068816411793 0 0 0
143 1 3.121520485754112 4.96177422195784 9.690390096518957 0 0 0
144 1 1.7377721787944378 6.3055182293725665 11.404905845445969 0 0 0
148 1 0.3563749736619802 7.643435609510505 9.690383912748151 0 0 0
189 1 3.119592433787062 7.6456600045593275 9.690386241456993 0 0 0
191 1 3.152533229808345 7.639469490834441 13.087197395238174 0 0 0
16 1 8.70913302958005 7.643462066837846 9.690411715611198 0 0 0
28 1 5.94601386854231 7.645680465051357 9.690401692622151 0 0 0
101 1 8.711248913826974 7.6542389042344094 13.133844249219758 0 0 0
166 1 10.086022645789305 3.613146257532232 11.406565251319043 0 0 0
172 1 8.711425550005542 4.961345588862362 9.690414832737812 0 0 0
177 1 7.3277677748128 6.305537729600081 11.40497089129421 0 0 0
183 1 5.944061172212107 4.961787300072883 9.690396427088897 0 0 0
184 1 5.912983633124988 7.6394845563190605 13.08724664962379 0 0 0
4 1 12.838387853075393 3.6131291328561317 11.406521042460684 0 0 0
10 1 11.462181167174881 4.961028207484254 9.690398337234342 0 0 0
11 1 10.087002455600429 6.30531396628415 11.415399008822572 0 0 0
52 1 10.085408620854245 8.984086023232187 11.409441863060017 0 0 0
72 1 11.462174420650333 7.6418401234402396 9.690398346118007 0 0 0
76 1 12.837401635875755 6.305290427115707 11.415356971618678 0 0 0
97 1 12.837384597671283 6.305287163787713 7.965424661460627 0 0 0
106 1 0.35811630642285325 10.324979688256247 9.690384287011865 0 0 0
107 1 1.735997587181887 11.664319852511928 11.40968817199778 0 0 0
108 1 0.3526221839271168 10.324982675260848 13.136593805864669 0 0 0
111 1 3.1195724767322637 13.004316418593117 9.69039739455347 0 0 0
112 1 0.35427694507104235 12.995761038488235 13.133777785525021 0 0 0
125 1 1.736017100563431 8.985648299552686 11.409688438899805 0 0 0
152 1 4.532778767683745 0.9254991053172444 11.373076696791662 0 1 0
197 1 3.1185329215684945 10.324987328942356 9.690385917488664 0 0 0
198 1 3.152255096548193 10.32498721553983 13.089503638210388 0 0 0
24 1 8.707370415325686 10.32500779345868 9.690406930925633 0 0 0
29 1 7.329517558515575 8.985677392603433 11.409762369900115 0 0 0
34 1 5.9470516602429235 10.32499966190649 9.690399313377979 0 0 0
35 1 7.329506020170385 11.664346050055915 11.409756788452395 0 0 0
36 1 5.913237923130126 10.325005682011222 13.089554578799017 0 0 0
39 1 5.945989996095239 13.004331927879672 9.690393300429289 0 0 0
40 1 7.283794392004532 11.671170291232984 1.1380285155419727 0 0 1
74 1 10.093184248757108 11.646816223888878 1.2135931996875222 0 0 1
78 1 8.709120996949384 13.006563500937284 9.690412416367797 0 0 0
176 1 4.532775577814782 11.665668376312652 11.374901119364445 0 0 0
190 1 4.532785497672293 8.984320085637027 11.374902123449809 0 0 0
17 1 8.712901855259744 10.325010941083665 13.136659405760879 0 0 0
50 1 10.085404654993498 11.665927862313138 11.409436898422065 0 0 0
53 1 12.838979838100867 8.984073217335284 11.409404962969283 0 0 0
58 1 11.462171441090208 10.325005357863308 9.690398688041197 0 0 0
59 1 12.838981440520325 11.665906799936822 11.409402848212384 0 0 0
62 1 11.462172325916642 13.008153195300105 9.6903954896475 0 0 0
63 1 11.462217264384755 12.995883263171892 13.144039111318065 0 0 0
199 1 0.3563625118568454 13.006537382387132 9.69038408115787 1 0 0

Velocities

115 0 0 0
116 0 0 0
122 0 0 0
131 0 0 0
23 0 0 0
42 0 0 0
43 0 0 0
48 0 0 0
154 0 0 0
155 0 0 0
156 0 0 0
161 0 0 0
65 0 0 0
69 0 0 0
79 0 0 0
81 0 0 0
82 0 0 0
88 0 0 0
90 0 0 0
124 0 0 0
135 0 0 0
140 0 0 0
145 0 0 0
179 0 0 0
185 0 0 0
6 0 0 0
12 0 0 0
25 0 0 0
149 0 0 0
162 0 0 0
168 0 0 0
169 0 0 0
180 0 0 0
7 0 0 0
71 0 0 0
89 0 0 0
94 0 0 0
95 0 0 0
98 0 0 0
102 0 0 0
103 0 0 0
109 0 0 0
123 0 0 0
129 0 0 0
130 0 0 0
146 0 0 0
175 0 0 0
30 0 0 0
31 0 0 0
37 0 0 0
51 0 0 0
100 0 0 0
186 0 0 0
192 0 0 0
193 0 0 0
194 0 0 0
13 0 0 0
18 0 0 0
19 0 0 0
20 0 0 0
54 0 0 0
55 0 0 0
60 0 0 0
113 0 0 0
117 0 0 0
118 0 0 0
119 0 0 0
132 0 0 0
133 0 0 0
137 0 0 0
150 0 0 0
151 0 0 0
3 0 0 0
44 0 0 0
45 0 0 0
46 0 0 0
157 0 0 0
158 0 0 0
163 0 0 0
165 0 0 0
66 0 0 0
67 0 0 0
70 0 0 0
83 0 0 0
84 0 0 0
85 0 0 0
92 0 0 0
1 0 0 0
128 0 0 0
136 0 0 0
141 0 0 0
142 0 0 0
147 0 0 0
181 0 0 0
8 0 0 0
49 0 0 0
164 0 0 0
170 0 0 0
171 0 0 0
174 0 0 0
182 0 0 0
187 0 0 0
2 0 0 0
9 0 0 0
14 0 0 0
75 0 0 0
91 0 0 0
96 0 0 0
104 0 0 0
105 0 0 0
110 0 0 0
126 0 0 0
173 0 0 0
195 0 0 0
21 0 0 0
27 0 0 0
32 0 0 0
33 0 0 0
38 0 0 0
77 0 0 0
188 0 0 0
196 0 0 0
15 0 0 0
22 0 0 0
56 0 0 0
57 0 0 0
61 0 0 0
73 0 0 0
99 0 0 0
114 0 0 0
121 0 0 0
134 0 0 0
139 0 0 0
160 0 0 0
26 0 0 0
41 0 0 0
87 0 0 0
120 0 0 0
153 0 0 0
159 0 0 0
167 0 0 0
178 0 0 0
5 0 0 0
47 0 0 0
64 0 0 0
68 0 0 0
80 0 0 0
86 0 0 0
93 0 0 0
127 0 0 0
138 0 0 0
143 0 0 0
144 0 0 0
148 0 0 0
189 0 0 0
191 0 0 0
16 0 0 0
28 0 0 0
101 0 0 0
166 0 0 0
172 0 0 0
177 0 0 0
183 0 0 0
184 0 0 0
4 0 0 0
10 0 0 0
11 0 0 0
52 0 0 0
72 0 0 0
76 0 0 0
97 0 0 0
106 0 0 0
107 0 0 0
108 0 0 0
111 0 0 0
112 0 0 0
125 0 0 0
152 0 0 0
197 0 0 0
198 0 0 0
24 0 0 0
29 0 0 0
34 0 0 0
35 0 0 0
36 0 0 0
39 0 0 0
40 0 0 0
74 0 0 0
78 0 0 0
176 0 0 0
190 0 0 0
17 0 0 0
50 0 0 0
53 0 0 0
58 0 0 0
59 0 0 0
62 0 0 0
63 0 0 0
199 0 0 0
