LAMMPS data file via write_data, version 22 Jul 2025, timestep = 349, units = metal

238 atoms
3 atom types

0 13.766346 xlo xhi
0 13.435039 ylo yhi
0 15.475764 zlo zhi
0 0 0 xy xz yz

Masses

1 63.55
2 63.55
3 63.55

Atoms # atomic

1 1 1.924130156382269 1.5075392717112146 1.4009782405431332 0 0 0
148 1 3.4051312955716044 3.1690870662653783 0.11950268463315594 0 0 0
152 1 0.36654704518686504 2.3503084340470544 3.344004986470566 0 0 0
160 1 3.4837840412372376 0.6663044341170413 14.935136420367282 0 0 -1
170 1 1.8428474521785043 4.0104260152251605 2.0631874614900045 0 0 0
177 1 4.46864189812324 1.4323604937659744 1.6165046242651628 0 0 0
179 1 4.409503732835564 3.9462198283812815 2.2647050780775517 0 0 0
213 1 3.3090931732520272 5.664434450300306 0.7815345718322357 0 0 0
55 1 6.018934379321166 0.6011922320605744 15.15159172418382 0 0 -1
141 1 6.472993090334923 2.5173864745918237 2.696773986459304 0 0 0
182 1 9.098297462983274 13.398966741895542 2.2178650115471683 0 -1 0
186 1 9.025902818850925 2.47898989714593 2.909157648602272 0 0 0
192 1 5.960405533076042 3.110118046578774 0.3276952442267419 0 0 0
194 1 7.971059772953491 4.202337084113893 1.412142869930778 0 0 0
49 1 11.658383551473557 13.35369314614677 2.4379459362552565 0 -1 0
56 1 10.509765191239278 4.164596586667509 1.6407471978944286 0 0 0
70 1 13.137452698070916 1.5943949212419901 1.1835132673552913 0 0 0
93 1 0.4409432955275222 13.278729758240615 2.665564276877881 1 -1 0
98 1 10.579946871648303 1.6578176919532632 0.9670570544042462 0 0 0
99 1 11.579825544387889 2.4266051365684285 3.1273706510015606 0 0 0
121 1 2.202548187003395 7.424169276333202 14.786457763297053 0 0 -1
122 1 0.6196808678692652 8.268129105816323 1.261883953954361 0 0 0
175 1 0.848245433448063 3.2606666211552238 15.384183234736051 0 0 -1
176 1 13.057297861963189 4.099187784104456 1.8564198903250237 -1 0 0
214 1 4.409627490035154 6.47290399639343 2.8472172103739126 0 0 0
220 1 1.7331994065433882 6.5003427373219225 2.726417560914632 0 0 0
221 1 4.5888116374240795 9.059404836318457 3.235247495737188 0 0 0
2 1 8.02295917537554 1.6913823318425918 0.7571758597395754 0 0 0
8 1 7.426261060757271 7.2659622244549364 15.139950763949273 0 0 -1
198 1 5.910387248019796 5.614247581758934 0.9660541225814945 0 0 0
199 1 7.90360620224381 6.691549150796085 2.088293764775868 0 0 0
204 1 5.985321553780185 8.166284721774622 1.4770945368374833 0 0 0
205 1 7.772964836193263 9.220963036818915 2.806576368703387 0 0 0
3 1 10.412517201117469 6.671529148968308 2.3095470588868023 0 0 0
9 1 10.288899667267225 9.175631399269152 2.9900583915829846 0 0 0
71 1 12.064167903576147 3.340272510131478 15.17001842088909 0 0 -1
74 1 0.7496012807005461 5.768549966279675 0.5695556900704394 1 0 0
104 1 9.463652469621074 5.889937483291965 0.13042571780870746 0 0 0
108 1 9.294395739897677 8.415296808901857 0.8113923879283281 0 0 0
109 1 11.849352889356094 8.344754841450793 1.057307949902579 0 0 0
117 1 11.98135822426766 5.846126683475863 0.36084397493696385 0 0 0
127 1 13.311854475198135 9.98937931878485 15.194686564667569 -1 0 -1
128 1 1.5742923390251282 9.008358471391773 3.456482703795031 0 0 0
132 1 0.5020291599218566 10.76299733287763 1.9544732960854097 0 0 0
134 1 2.9776036963475536 13.194753919574216 2.906727838418865 0 0 0
227 1 3.158287452393285 8.15564562303681 1.481682787715776 0 0 0
228 1 3.007950948185172 10.69600730238991 2.2637336176159533 0 0 0
235 1 2.082859422486215 9.934580830184135 0.024138277410534675 0 0 0
236 1 4.973677645280828 0.8275877441119965 3.981597779186605 0 1 0
15 1 6.575246842114816 10.837912429359 1.3927324150989293 0 0 0
23 1 6.521846914661382 13.419873665922713 2.043379721832014 0 0 0
31 1 4.584672323403017 9.860678415890625 0.3334535972491116 0 0 0
32 1 5.005480050612137 11.687579746786636 3.3491473247666983 0 0 0
39 1 4.542271612012277 12.350545697727595 0.9698179054796536 0 0 0
40 1 7.54354798503541 0.8001282920840969 4.171329355586062 0 1 0
16 1 7.634270696842042 11.721827313378931 3.4685862722610845 0 0 0
24 1 10.098209962251325 0.740735116856691 4.3780895640361495 0 1 0
63 1 10.168463221379444 11.654679525155355 3.646068167639761 0 0 0
64 1 13.22676750702962 12.519872710088425 0.5009450382015657 0 0 0
77 1 10.665858741071512 12.58990840237548 0.281551749244534 0 0 0
83 1 12.141056707866364 0.8390071169216383 14.503273137119754 0 1 -1
115 1 9.168566556217327 10.856106450278304 1.4052457326540078 0 0 0
116 1 11.73626858636624 10.836505261828567 1.7151751794807752 0 0 0
151 1 1.4211032174922635 0.6139466103540967 4.840879213859255 0 0 0
153 1 2.9170326200862777 2.278564055894385 3.5537342671625898 0 0 0
156 1 1.3722353054361978 3.1363148021532514 5.492257669134737 0 0 0
161 1 3.427442264592737 1.6872842479318209 5.919643404601472 0 0 0
165 1 4.924530545263738 3.3563358687391682 4.636414432516831 0 0 0
171 1 3.3782261248883234 4.210023233146526 6.571609118050338 0 0 0
215 1 2.8741716942792648 4.804884951808004 4.190545725648534 0 0 0
4 1 8.95759856331493 4.981499074426207 3.5924565644358086 0 0 0
138 1 5.989373679169015 1.635891424495448 6.121177071582505 0 0 0
142 1 7.473694198899697 3.3075067174645034 4.858674648940331 0 0 0
183 1 8.545615876619372 1.5737004337489962 6.334438784829092 0 0 0
200 1 6.422775240128156 5.0227633788935675 3.355833348871845 0 0 0
207 1 8.472231014049767 4.085474422805661 7.026360159536261 0 0 0
208 1 5.92019436982749 4.143967308106082 6.801978645298734 0 0 0
30 1 11.027645383644847 4.026261046831736 7.233594446857514 0 0 0
46 1 11.095794384634834 1.5132444011492234 6.552288204434834 0 0 0
50 1 12.648688736952675 0.6848926303142421 4.6080204314913455 0 0 0
60 1 13.640111239044218 1.4659965065039466 6.77992512250226 0 0 0
72 1 12.578684122218066 3.190348793736165 5.290200615767212 0 0 0
100 1 13.598416934889418 4.000786808509653 7.42543877719884 0 0 0
105 1 11.498785047108443 4.932382415389753 3.8092758101081543 0 0 0
187 1 10.025464676934188 3.2499945324836226 5.075229020306094 0 0 0
120 1 4.788790160661878 8.388669630218027 5.963544481050052 0 0 0
123 1 0.15860489687656865 7.346324683192276 4.683544881120477 0 0 0
150 1 0.2870811074589358 4.85140344631408 4.015889311162422 0 0 0
163 1 1.3469978462480765 5.684428823714021 6.115071021162594 0 0 0
216 1 4.884771064257819 5.865114033430102 5.2850730599602525 0 0 0
222 1 2.9529621628663105 7.345322891131533 4.6841391130569 0 0 0
224 1 1.5611866238052976 8.250107990374042 6.461277519786234 0 0 0
10 1 8.86538288001783 7.489419846896251 4.2720163531419395 0 0 0
11 1 7.303112291063351 8.321445532012724 6.2214120871311565 0 0 0
201 1 7.407319789257665 5.81455056193029 5.542625615857244 0 0 0
206 1 6.354170515122406 7.525021520693518 4.020865923435611 0 0 0
5 1 9.944422007839957 5.761392290999818 5.764344284419374 0 0 0
75 1 12.350011771355044 8.203178815798205 6.650537484601732 0 0 0
87 1 12.950988751846024 6.599073083826994 2.530784683841422 0 0 0
106 1 12.497954640440355 5.698440656373476 5.9683562712800295 0 0 0
110 1 11.387008571095514 7.437085056803383 4.486288407171863 0 0 0
111 1 9.826112365229832 8.272356118752189 6.45174619219696 0 0 0
129 1 0.003509269033221323 9.877435360150551 5.444278695975242 0 0 0
130 1 1.8360127874151382 10.91978624001599 6.727180162724088 0 0 0
135 1 13.672292156812468 12.396107654578499 6.126496344445276 -1 0 0
147 1 1.4433652927452418 11.546246600901215 4.188401636622991 0 0 0
210 1 3.45564900458837 12.575931024315969 5.287239412413373 0 0 0
223 1 4.508965413479158 13.410919343126182 7.39359918962147 0 0 0
229 1 3.22505364256644 10.01098929159888 4.953377682996917 0 0 0
230 1 4.6345917585240874 10.920583957782299 6.7254269378854055 0 0 0
17 1 8.739473895524876 10.004856089427397 4.9687844986315985 0 0 0
25 1 8.623258376098972 12.502476642092283 5.638828787354206 0 0 0
33 1 6.212795596453264 10.067349529610029 4.7626677584545165 0 0 0
34 1 7.174973713759771 10.83747658241387 6.925769513086075 0 0 0
41 1 6.070025768809396 12.565509312930695 5.435776859215147 0 0 0
42 1 7.067880047342113 13.336839672938485 7.600210291774033 0 0 0
18 1 9.700857955407596 10.786967288366036 7.15358655738458 0 0 0
26 1 9.613342698887742 13.278382883048922 7.82278829314849 0 0 0
65 1 11.154943914948632 12.445472951086842 5.85757926583725 0 0 0
66 1 12.137395176833099 13.22994521492947 8.067239940858588 0 0 0
78 1 12.822521399743875 9.11372114093741 3.2363854515470147 0 0 0
84 1 12.708159990467424 11.611630298809033 3.915402265866631 0 0 0
90 1 11.257066441713059 9.950639569486409 5.18607163252429 0 0 0
103 1 12.203306868551724 10.738012043428517 7.395394663738663 0 0 0
143 1 4.4337265722155506 2.4777142766041016 8.067115287030518 0 0 0
154 1 0.3362519467242863 3.3913914774227107 9.792994620418147 0 0 0
162 1 2.9497133010034893 0.812103227732035 9.350591474790209 0 0 0
166 1 1.9218772710106222 0.019382746432206003 7.2191471157906 0 0 0
167 1 2.8842000919722737 3.3223924652252945 10.005908761752773 0 0 0
139 1 5.510827160267026 0.7379904741934454 9.55002769605077 0 0 0
144 1 5.438650040635345 3.247062959399299 10.222657795928203 0 0 0
184 1 8.068202326085027 0.6718484643629852 9.770906289511252 0 0 0
188 1 6.991739415527431 2.4063544975791036 8.2825898502659 0 0 0
189 1 7.999002050209104 3.1839665819614162 10.43793270905066 0 0 0
47 1 10.608661457875668 0.638506088299937 9.996898871054341 0 0 0
51 1 9.54714061563157 2.352063708422082 8.498646541539372 0 0 0
52 1 10.559600316055803 3.156786716933607 10.645533111484799 0 0 0
91 1 0.3819058588899806 0.8658670590221527 9.157204015184885 1 0 0
94 1 12.100594909541535 2.312358349412479 8.710348444955793 0 0 0
95 1 12.557141558695134 4.245726258716271 11.729250408986227 0 0 0
124 1 13.577184374764405 6.574189989493792 8.042122794482834 -1 0 0
125 1 1.7916920966229952 7.569848337805011 9.148802974728218 0 0 0
149 1 2.807922139246909 5.827096374305214 10.677477766045802 0 0 0
157 1 1.8806084718081217 2.541479025970372 7.860106656318412 0 0 0
158 1 1.829902144825732 5.065517127913978 8.500643275228326 0 0 0
172 1 4.367698394885985 4.989515483537831 8.743118460099712 0 0 0
225 1 4.296842297604457 7.50161681377161 9.443072271579553 0 0 0
237 1 3.350558762650243 6.717833140359314 7.2188821845226885 0 0 0
12 1 8.390458425534352 6.602494969698206 7.728704761910348 0 0 0
118 1 6.827785726461525 7.432949476349848 9.675449345604687 0 0 0
119 1 5.853801577722956 6.654744071245417 7.48425256368587 0 0 0
180 1 6.917021189221115 4.919121176763252 8.968195936849279 0 0 0
202 1 7.920426724662683 5.693797986474363 11.122811825655042 0 0 0
217 1 5.357563613897413 5.757798586703022 10.91324958773487 0 0 0
6 1 10.513062500970886 5.693605191384106 11.302886446515188 0 0 0
13 1 9.389730929974155 7.392355952408992 9.911707229751075 0 0 0
29 1 12.055536887480814 4.848843543304107 9.35683406412795 0 0 0
76 1 12.013655668009411 7.4134286338299855 9.979341654869303 0 0 0
107 1 0.27600261813797927 5.911048675588037 10.430472586555913 1 0 0
112 1 10.937624292291401 6.539174540860248 7.920120308354371 0 0 0
113 1 12.489130044752287 6.770331143490348 12.379032245046727 0 0 0
195 1 9.47811174898548 4.8699832564721 9.183507471870874 0 0 0
35 1 3.2155639629718773 9.257971181341576 7.949895192456155 0 0 0
36 1 4.168043038535253 10.00145726996309 10.142073946862649 0 0 0
136 1 0.3809386296488412 11.788205930912019 8.569291329801638 0 0 0
137 1 1.4696220470285224 12.57982890711117 10.647962318510698 0 0 0
193 1 4.044401489854325 12.504001203564508 10.837013844434674 0 0 0
209 1 3.0543781914328454 11.763129084880896 8.686153526339549 0 0 0
231 1 0.20382804563461218 9.203449121760311 8.183988830735045 0 0 0
232 1 1.6285927793653412 10.109386496926563 9.937337119353678 0 0 0
19 1 5.734870827624745 9.158137243957858 8.169277938099208 0 0 0
20 1 6.701025214276386 9.93260387125836 10.354343968684931 0 0 0
43 1 8.147458160616878 11.610732213271165 9.103182620849775 0 0 0
44 1 5.607252990035912 11.67240267894197 8.878785944125493 0 0 0
57 1 6.5948919752871795 12.44088798842844 11.039362487483709 0 0 0
58 1 9.147758581530715 12.377981464808364 11.285088046612405 0 0 0
89 1 8.265512062234333 9.104208370101663 8.41458983461703 0 0 0
67 1 10.661546973413474 11.567202401655035 9.367075259925702 0 0 0
68 1 11.114677883113874 0.016997951360539162 12.375293844615719 0 1 0
73 1 9.233757670579333 9.887661803701574 10.604478037192825 0 0 0
79 1 10.783309680455538 9.05286470198385 8.623560742277713 0 0 0
80 1 11.146401691682588 10.819382540113653 11.876273438212653 0 0 0
85 1 12.638031817112752 12.615508812330162 10.479571486634814 0 0 0
86 1 13.702041845307672 13.43475995421677 12.566951296223714 0 0 0
238 1 12.570182072638051 10.09730956061067 9.938149799116054 0 0 0
145 1 3.964913377529745 1.5764150722472625 11.495925081151524 0 0 0
155 1 13.620011765267412 2.505558744095513 13.226428170824986 -1 0 0
164 1 2.4996730250268433 13.352106479775507 12.774978870073943 0 -1 0
168 1 1.4069028393376486 1.6590715463484038 11.28698634038536 0 0 0
169 1 2.407585617786728 2.4165695442338717 13.44011470915064 0 0 0
173 1 1.3303364361884935 4.1640210425333155 11.94479546601393 0 0 0
211 1 3.8826906784518362 4.079756127791003 12.164102497953374 0 0 0
28 1 9.012197197385266 3.981133600254882 12.581500037094528 0 0 0
53 1 9.067779949810669 1.4644789541954952 11.925497013315292 0 0 0
140 1 5.0501130823977975 13.262887339003772 12.992045380884669 0 -1 0
146 1 4.962358745770925 2.33521343683061 13.651437791964423 0 0 0
185 1 7.579767843114262 13.223271748564336 13.199827497648787 0 -1 0
190 1 6.515285559471478 1.510595599067698 11.706121010668939 0 0 0
191 1 7.514569776924585 2.285020496646194 13.864165476726733 0 0 0
196 1 6.442971280234901 4.012530388603821 12.376436794474955 0 0 0
48 1 9.579041585447621 0.86306565229456 14.292793854413679 0 0 0
54 1 9.522414102612911 3.3787998371802286 14.949902713601803 0 0 0
92 1 0.9316258635284405 0.7573912182226565 14.717634323704088 1 0 0
96 1 12.611651381544641 1.7160483869319285 11.084710035607142 0 0 0
97 1 11.070466911144859 2.554313543550952 13.012219802706467 0 0 0
101 1 11.009611823031388 5.075674295016026 13.668494660522274 0 0 0
133 1 3.790432915465529 6.584281321486639 12.847770232598263 0 0 0
159 1 1.2469937160802707 6.657922599084682 12.61313257695682 0 0 0
174 1 2.3223539631488834 4.9165620239194165 14.106148518105256 0 0 0
219 1 4.760747677790317 7.3308555232150985 15.004266283238826 0 0 0
197 1 7.462470896000843 4.789351267647095 14.510515497357707 0 0 0
212 1 4.885472730871363 4.837163413172636 14.315565649598135 0 0 0
218 1 6.356529431111695 6.523815645109284 13.062904570265358 0 0 0
7 1 13.41371927872863 7.5270399559035095 14.546969187311573 0 0 0
27 1 10.913156395008363 7.599078560207196 14.34002898231636 0 0 0
102 1 13.538483885758529 5.0123885804063635 13.88799835085531 0 0 0
203 1 8.970854724366315 6.5161178889886 13.223140440070916 0 0 0
45 1 2.585886604567577 10.836703797886706 12.104517936840779 0 0 0
126 1 1.109570211095973 9.151444645816564 13.301868792622649 0 0 0
131 1 0.21131704853970174 8.402346973267525 11.07377870003347 0 0 0
181 1 13.76127795383048 10.889383087155634 11.927521597764713 -1 0 0
226 1 3.6833236094576987 9.0998622947437 13.5787419913561 0 0 0
233 1 2.7238034750033986 8.331221168303719 11.37828154513937 0 0 0
234 1 2.0094329273639557 12.438374550407364 0.7283574813592906 0 0 1
14 1 8.853978390434131 9.086113456202009 13.91962358436709 0 0 0
21 1 7.821825140441753 8.21341007052453 11.844629204875865 0 0 0
22 1 6.137982932417538 11.51452943533837 14.502569930336008 0 0 0
37 1 5.2760777314296945 8.284053897363684 11.661044415362877 0 0 0
38 1 3.5901602249838147 11.601367254590828 14.263267448377006 0 0 0
59 1 5.141532182699703 10.761293872718822 12.326266870378115 0 0 0
88 1 6.262872304527074 9.065467693618478 13.916599772490287 0 0 0
61 1 10.53628867035625 8.311239372574459 11.9920219186998 0 0 0
62 1 8.071364067249897 12.62199967944924 0.09917339755572456 0 0 1
69 1 7.655665662387031 10.716587188704889 12.527995749092392 0 0 0
81 1 12.241579092115142 11.794918819914896 13.834963438010167 0 0 0
82 1 1.041121832520015 11.694802801030747 14.033871197961751 1 0 0
114 1 10.831128082336171 10.063301294943681 14.981922912834296 0 0 0
178 1 9.58829620525334 11.741832226261653 13.683080942973282 0 0 0

Velocities

1 0 0 0
148 0 0 0
152 0 0 0
160 0 0 0
170 0 0 0
177 0 0 0
179 0 0 0
213 0 0 0
55 0 0 0
141 0 0 0
182 0 0 0
186 0 0 0
192 0 0 0
194 0 0 0
49 0 0 0
56 0 0 0
70 0 0 0
93 0 0 0
98 0 0 0
99 0 0 0
121 0 0 0
122 0 0 0
175 0 0 0
176 0 0 0
214 0 0 0
220 0 0 0
221 0 0 0
2 0 0 0
8 0 0 0
198 0 0 0
199 0 0 0
204 0 0 0
205 0 0 0
3 0 0 0
9 0 0 0
71 0 0 0
74 0 0 0
104 0 0 0
108 0 0 0
109 0 0 0
117 0 0 0
127 0 0 0
128 0 0 0
132 0 0 0
134 0 0 0
227 0 0 0
228 0 0 0
235 0 0 0
236 0 0 0
15 0 0 0
23 0 0 0
31 0 0 0
32 0 0 0
39 0 0 0
40 0 0 0
16 0 0 0
24 0 0 0
63 0 0 0
64 0 0 0
77 0 0 0
83 0 0 0
115 0 0 0
116 0 0 0
151 0 0 0
153 0 0 0
156 0 0 0
161 0 0 0
165 0 0 0
171 0 0 0
215 0 0 0
4 0 0 0
138 0 0 0
142 0 0 0
183 0 0 0
200 0 0 0
207 0 0 0
208 0 0 0
30 0 0 0
46 0 0 0
50 0 0 0
60 0 0 0
72 0 0 0
100 0 0 0
105 0 0 0
187 0 0 0
120 0 0 0
123 0 0 0
150 0 0 0
163 0 0 0
216 0 0 0
222 0 0 0
224 0 0 0
10 0 0 0
11 0 0 0
201 0 0 0
206 0 0 0
5 0 0 0
75 0 0 0
87 0 0 0
106 0 0 0
110 0 0 0
111 0 0 0
129 0 0 0
130 0 0 0
135 0 0 0
147 0 0 0
210 0 0 0
223 0 0 0
229 0 0 0
230 0 0 0
17 0 0 0
25 0 0 0
33 0 0 0
34 0 0 0
41 0 0 0
42 0 0 0
18 0 0 0
26 0 0 0
65 0 0 0
66 0 0 0
78 0 0 0
84 0 0 0
90 0 0 0
103 0 0 0
143 0 0 0
154 0 0 0
162 0 0 0
166 0 0 0
167 0 0 0
139 0 0 0
144 0 0 0
184 0 0 0
188 0 0 0
189 0 0 0
47 0 0 0
51 0 0 0
52 0 0 0
91 0 0 0
94 0 0 0
95 0 0 0
124 0 0 0
125 0 0 0
149 0 0 0
157 0 0 0
158 0 0 0
172 0 0 0
225 0 0 0
237 0 0 0
12 0 0 0
118 0 0 0
119 0 0 0
180 0 0 0
202 0 0 0
217 0 0 0
6 0 0 0
13 0 0 0
29 0 0 0
76 0 0 0
107 0 0 0
112 0 0 0
113 0 0 0
195 0 0 0
35 0 0 0
36 0 0 0
136 0 0 0
137 0 0 0
193 0 0 0
209 0 0 0
231 0 0 0
232 0 0 0
19 0 0 0
20 0 0 0
43 0 0 0
44 0 0 0
57 0 0 0
58 0 0 0
89 0 0 0
67 0 0 0
68 0 0 0
73 0 0 0
79 0 0 0
80 0 0 0
85 0 0 0
86 0 0 0
238 0 0 0
145 0 0 0
155 0 0 0
164 0 0 0
168 0 0 0
169 0 0 0
173 0 0 0
211 0 0 0
28 0 0 0
53 0 0 0
140 0 0 0
146 0 0 0
185 0 0 0
190 0 0 0
191 0 0 0
196 0 0 0
48 0 0 0
54 0 0 0
92 0 0 0
96 0 0 0
97 0 0 0
101 0 0 0
133 0 0 0
159 0 0 0
174 0 0 0
219 0 0 0
197 0 0 0
212 0 0 0
218 0 0 0
7 0 0 0
27 0 0 0
102 0 0 0
203 0 0 0
45 0 0 0
126 0 0 0
131 0 0 0
181 0 0 0
226 0 0 0
233 0 0 0
234 0 0 0
14 0 0 0
21 0 0 0
22 0 0 0
37 0 0 0
38 0 0 0
59 0 0 0
88 0 0 0
61 0 0 0
62 0 0 0
69 0 0 0
81 0 0 0
82 0 0 0
114 0 0 0
178 0 0 0
