LAMMPS data file via write_data, version 22 Jul 2025, timestep = 22, units = metal

189 atoms
3 atom types

0 7.668573 xlo xhi
0 6.641179 ylo yhi
0 43.829546 zlo zhi
3.834287 0 0 xy xz yz

Masses

1 63.55
2 63.55
3 63.55

Atoms # atomic

1 1 3.4412065867825616e-06 7.622396686295051e-07 0.15345753926943942 0 0 0
2 1 2.5561944407148283 7.630649539388098e-07 0.1534575397572294 0 0 0
5 1 3.834290106256895 2.213727096126979 0.15345753952907681 0 0 0
10 1 1.2780969381481015 0.7379091677901983 2.2189515037710286 0 0 0
11 1 3.834287938148103 0.7379091677178696 2.2189515041292625 0 0 0
13 1 2.5561926044632846 2.9516355012816606 2.218951503632428 0 0 0
3 1 5.112385441206584 7.638902300370242e-07 0.15345754024501448 0 0 0
6 1 6.390481108084704 2.2137270961052344 0.15345753985179042 0 0 0
8 1 5.112385773410763 4.4274534293526235 0.15345754018089908 0 0 0
9 1 7.668576773410759 4.427453430905855 0.15345753959367703 0 0 0
12 1 6.3904789394990775 0.7379091677540341 2.218951503950147 0 0 0
14 1 5.11238360479403 2.9516355004196964 2.218951503465863 0 0 0
15 1 7.6685746047940295 2.95163550214362 2.2189515037989858 0 0 0
16 1 3.834288271640628 5.165361834085592 2.218951503860558 0 0 0
17 1 6.390479271575979 5.165361834677243 2.218951503974543 0 0 0
4 1 1.2780991062568992 2.2137270960834994 0.15345754017451277 0 0 0
7 1 2.5561947729263927 4.427453430129237 0.15345753988728655 0 0 0
18 1 8.946670271640624 5.165361835268895 2.2189515040885226 0 0 0
19 1 2.556191587519007 1.475817778353745 4.291355054648782 0 0 0
28 1 9.094184932558079e-08 1.497901100176273e-07 6.364762573816767 0 0 0
29 1 2.5561910909653633 1.5033206846510058e-07 6.364762574139324 0 0 0
32 1 3.83428675727085 2.2137264836645327 6.364762574338289 0 0 0
20 1 5.112382587814407 1.4758177782104354 4.291355054720508 0 0 0
21 1 7.668573587814411 1.475817778497051 4.291355054577056 0 0 0
22 1 3.834287254505282 3.6895441113310645 4.291355054535219 0 0 0
23 1 6.3904782544509775 3.6895441115772067 4.291355054628151 0 0 0
25 1 5.112382920290003 5.90327044461061 4.291355054637231 0 0 0
26 1 7.6685739202900045 5.903270444733787 4.291355054929236 0 0 0
30 1 5.112382090941845 1.5087402822042293e-07 6.364762574461882 0 0 0
33 1 6.390477758257475 2.2137264836293538 6.364762574261291 0 0 0
35 1 5.112382424298628 4.4274528167373255 6.364762574431289 0 0 0
36 1 7.668573424298625 4.42745281767428 6.364762574584299 0 0 0
24 1 8.946669254505283 3.689544111823363 4.291355054721085 0 0 0
27 1 10.224764920347361 5.9032704446722 4.2913550547832315 0 0 0
31 1 1.2780957572708507 2.2137264835941837 6.364762574184293 0 0 0
34 1 2.5561914237754824 4.427452817205808 6.364762574507793 0 0 0
37 1 1.2780954825822166 0.7379088995856191 8.43816130026344 0 0 0
38 1 3.834286482582216 0.7379088999637647 8.438161300981186 0 0 0
40 1 2.556191149679515 2.951635233040443 8.438161300586406 0 0 0
46 1 2.55619096583064 1.4758176628961852 10.511556717694159 0 0 0
39 1 6.390477483763714 0.73790889977469 8.438161300622316 0 0 0
41 1 5.112382150242238 2.9516352324629707 8.438161300378408 0 0 0
42 1 7.66857315024224 2.951635233617909 8.438161300794407 0 0 0
43 1 3.834286817108896 5.165361565881783 8.43816130060302 0 0 0
44 1 6.390477816974309 5.165361566622745 8.438161300861042 0 0 0
47 1 5.112381966444222 1.4758176628731372 10.511556717790912 0 0 0
48 1 7.668572966444222 1.4758176629192312 10.511556717597413 0 0 0
49 1 3.8342866337317343 3.6895439954858307 10.511556717739678 0 0 0
50 1 6.390477633743876 3.689543995949875 10.511556717942465 0 0 0
52 1 5.11238229937439 5.903270328970411 10.511556717570748 0 0 0
53 1 7.6685732993743905 5.903270329643204 10.51155671814056 0 0 0
45 1 8.946668817108893 5.165361567363708 8.438161301119063 0 0 0
51 1 8.946668633731733 3.689543996413924 10.511556718145256 0 0 0
54 1 10.224764299714453 5.903270329306808 10.511556717855655 0 0 0
55 1 7.668572820281349 9.994291170248922e-08 12.584953227741147 -1 0 0
56 1 2.5561908194587675 1.0041940987066735e-07 12.584953228120337 0 0 0
59 1 3.8342864856113437 2.213726433153259 12.584953227995795 0 0 0
64 1 1.278095353929866 0.7379088775403523 14.658364763795548 0 0 0
65 1 3.834286353929865 0.7379088772541011 14.658364763783101 0 0 0
67 1 2.556191021709145 2.9516352106351627 14.658364763391225 0 0 0
57 1 5.112381820281347 1.0089590632935593e-07 12.584953228499531 0 0 0
60 1 6.390477486820062 2.21372643352297 12.584953228062847 0 0 0
62 1 5.11238215280491 4.427452766164448 12.584953228213987 0 0 0
63 1 7.668573152804909 4.427452767945443 12.584953228821627 0 0 0
66 1 6.3904773550209315 0.7379088773972222 14.658364763789328 0 0 0
68 1 5.112382021850736 2.951635210027556 14.658364763017946 0 0 0
69 1 7.668573021850736 2.9516352112427637 14.6583647637645 0 0 0
70 1 3.8342866883534334 5.16536154378136 14.65836476355121 0 0 0
71 1 6.390477687816153 5.165361544196741 14.658364763771466 0 0 0
58 1 8.946668485611346 2.213726433892686 12.584953228129898 -1 0 0
61 1 10.224764153000752 4.427452767054948 12.584953228517808 -1 0 0
72 1 8.94666868835343 5.165361544612117 14.658364763991724 0 0 0
73 1 2.556190889709712 1.4758176514085646 16.731820441398156 0 0 0
82 1 7.668572761507714 9.285484437152069e-08 18.801694830981315 -1 0 0
83 1 2.5561907607845096 9.335600949737992e-08 18.80169483095021 0 0 0
86 1 3.834286426532734 2.21372642608572 18.801694831061752 0 0 0
74 1 5.112381890269244 1.4758176516376587 16.731820441294907 0 0 0
75 1 7.668572890269243 1.4758176511794667 16.731820441501405 0 0 0
76 1 3.8342865586487305 3.689543984046285 16.73182044115062 0 0 0
77 1 6.390477558824743 3.689543984475468 16.73182044132071 0 0 0
79 1 5.112382223890326 5.903270317271678 16.731820441331752 0 0 0
80 1 7.668573223890325 5.903270318394823 16.731820441410008 0 0 0
84 1 5.112381761507711 9.385717168958681e-08 18.801694830919107 0 0 0
87 1 6.39047742766062 2.213726426706518 18.801694831016253 0 0 0
89 1 5.112382095041522 4.427452758886009 18.80169483095111 0 0 0
90 1 7.66857309504152 4.427452761053782 18.801694831204106 0 0 0
78 1 8.946668558648732 3.6895439849046507 16.731820441490804 0 0 0
81 1 10.224764224177498 5.9032703178332495 16.731820441370882 0 0 0
85 1 8.946668426532735 2.2137264273273196 18.801694830970753 -1 0 0
88 1 10.224764095387512 4.4274527599698965 18.80169483107761 -1 0 0
91 1 2.5561910436416992 1.475817659552332 20.86800894876422 0 0 0
100 1 7.668572914720965 1.0158541363727296e-07 22.93788308881087 -1 0 0
101 1 2.556190914602643 1.0260208284228055e-07 22.93788308916763 0 0 0
104 1 3.8342865808998674 2.213726436025254 22.93788308921367 0 0 0
92 1 5.112382044243274 1.4758176602555215 20.868008948909935 0 0 0
93 1 7.668573044243277 1.4758176588491434 20.86800894861851 0 0 0
94 1 3.8342867120275943 3.689543992582286 20.86800894926113 0 0 0
95 1 6.390477712818644 3.6895439927666795 20.868008949290676 0 0 0
97 1 5.112382376908046 5.903270325232485 20.868008948766697 0 0 0
98 1 7.668573376908045 5.903270326887451 20.868008949265597 0 0 0
102 1 5.112381914720962 1.0361875703751213e-07 22.937883089524387 0 0 0
105 1 6.390477582298216 2.213726435718822 22.93788308918707 0 0 0
107 1 5.112382249647957 4.427452768735525 22.937883089466244 0 0 0
108 1 7.668573249647955 4.4274527700292445 22.937883089753008 0 0 0
96 1 8.946668712027595 3.689543992951081 20.86800894932022 0 0 0
99 1 10.224764376387917 5.903270326059972 20.86800894901615 0 0 0
103 1 8.946668580899868 2.2137264354123958 22.937883089160476 -1 0 0
106 1 10.224764248860572 4.4274527693823895 22.937883089609628 -1 0 0
109 1 1.2780954536402058 0.7379088816424723 25.011337590804597 0 0 0
110 1 3.8342864536402037 0.737908882723126 25.01133759136072 0 0 0
112 1 2.5561911199410345 2.951635215488791 25.011337591108845 0 0 0
118 1 2.556190993327188 1.475817658735152 27.08474603116813 0 0 0
111 1 6.390477455092879 0.7379088821827986 25.01133759108266 0 0 0
113 1 5.112382120885054 2.95163521478029 25.011337590862915 0 0 0
114 1 7.668573120885057 2.951635216197285 25.011337591354778 0 0 0
115 1 3.834286788327443 5.165361547781315 25.011337591144162 0 0 0
116 1 6.390477788459105 5.165361548957026 25.01133759145107 0 0 0
119 1 5.1123819940011055 1.4758176584922582 27.08474603119639 0 0 0
120 1 7.668572994001108 1.475817658978045 27.084746031139872 0 0 0
121 1 3.8342866609895747 3.6895439916586352 27.084746031087747 0 0 0
122 1 6.390477661210058 3.6895439921205258 27.08474603129485 0 0 0
124 1 5.112382326345987 5.903270325128838 27.08474603109296 0 0 0
125 1 7.668573326345985 5.903270325724613 27.084746031602894 0 0 0
117 1 8.94666878832744 5.165361550132743 25.01133759175797 0 0 0
123 1 8.946668660989573 3.6895439925824243 27.08474603150195 0 0 0
126 1 10.224764326756258 5.903270325426728 27.084746031347926 0 0 0
127 1 7.6685728613330335 9.819076696066036e-08 29.15813993190437 -1 0 0
128 1 2.5561908613475817 9.877732197118607e-08 29.158139932236857 0 0 0
131 1 3.8342865274540063 2.213726432212226 29.158139931743655 0 0 0
136 1 1.278095384038821 0.7379088723249713 31.23153377583655 0 0 0
137 1 3.8342863840388204 0.7379088732267306 31.231533775970398 0 0 0
139 1 2.556191050772261 2.951635205844834 31.231533775445772 0 0 0
129 1 5.112381861333031 9.936387988770763e-08 29.15813993256935 0 0 0
132 1 6.390477528411373 2.213726431968932 29.158139931942014 0 0 0
134 1 5.11238219559705 4.427452765189502 29.15813993206569 0 0 0
135 1 7.66857319559705 4.427452765838306 29.15813993275907 0 0 0
138 1 6.390477385053899 0.7379088727758504 31.231533775903475 0 0 0
140 1 5.112382051379391 2.951635205539138 31.231533774954546 0 0 0
141 1 7.66857305137939 2.951635206150525 31.231533775936995 0 0 0
142 1 3.834286718765006 5.165361538924998 31.23153377580199 0 0 0
143 1 6.390477718664041 5.165361539517823 31.23153377599874 0 0 0
130 1 8.946668527454008 2.213726431725643 29.15813993214037 -1 0 0
133 1 10.224764195114858 4.427452765513908 29.158139932412375 -1 0 0
144 1 8.946668718765004 5.165361540110655 31.231533776195494 0 0 0
145 1 2.556190869863421 1.4758176372371268 33.304926879176996 0 0 0
154 1 7.668572596772595 5.0618776549632665e-08 35.37832299029098 -1 0 0
155 1 2.5561905964133698 5.0767988999163404e-08 35.37832299037542 0 0 0
158 1 3.834286262525194 2.2137263837039356 35.378322989932734 0 0 0
146 1 5.1123818701612365 1.475817637166246 33.30492687894425 0 0 0
147 1 7.668572870161238 1.4758176373080036 33.30492687940975 0 0 0
148 1 3.8342865382375297 3.6895439701682045 33.304926878682366 0 0 0
149 1 6.39047753822434 3.689543970442309 33.30492687905153 0 0 0
151 1 5.112382203366132 5.903270303327249 33.304926879451536 0 0 0
152 1 7.668573203366131 5.903270303882032 33.304926879628944 0 0 0
156 1 5.112381596772591 5.091719814790261e-08 35.378322990459864 0 0 0
159 1 6.390477262907758 2.213726383791442 35.378322990171135 0 0 0
161 1 5.112381930213169 4.427452716890185 35.37832299021594 0 0 0
162 1 7.668572930213166 4.427452717345261 35.3783229905787 0 0 0
150 1 8.946668538237532 3.689543970716421 33.3049268794207 0 0 0
153 1 10.22476420349102 5.903270303604641 33.30492687954024 0 0 0
157 1 8.946668262525193 2.2137263838789525 35.378322990409536 -1 0 0
160 1 10.224763930560004 4.427452717117724 35.37832299039732 -1 0 0
163 1 1.2780947687509387 0.7379087582785587 37.451728029551035 0 0 0
164 1 3.8342857687509415 0.7379087584036226 37.45172802929673 0 0 0
166 1 2.556190436107524 2.9516350914516982 37.45172802914093 0 0 0
172 1 2.5561894177679663 1.475817367782656 39.524129208485704 0 0 0
165 1 6.3904767692308555 0.7379087583410915 37.45172802942388 0 0 0
167 1 5.1123814361140205 2.951635091486063 37.45172802887729 0 0 0
168 1 7.668572436114022 2.951635091417327 37.45172802940458 0 0 0
169 1 3.8342861032884805 5.165361425409795 37.45172802915872 0 0 0
170 1 6.390477103187006 5.1653614253295865 37.45172802914536 0 0 0
173 1 5.1123804182914085 1.4758173679864948 39.524129208437145 0 0 0
174 1 7.668571418291414 1.4758173675788149 39.52412920853427 0 0 0
175 1 3.8342850857159556 3.6895437010072447 39.52412920838149 0 0 0
176 1 6.390476085815102 3.6895437009472127 39.52412920852877 0 0 0
178 1 5.112380751676756 5.903270033853438 39.52412920867311 0 0 0
179 1 7.668571751676754 5.903270034616077 39.52412920874138 0 0 0
171 1 8.94666810328848 5.165361425249378 37.45172802913199 0 0 0
177 1 8.946667085715957 3.68954370088719 39.524129208676065 0 0 0
180 1 10.22476275156402 5.903270034234762 39.524129208707244 0 0 0
181 1 11.502856247306138 6.641178434036892 41.58962156800508 -1 -1 0
182 1 6.390474246684226 6.641178434162456 41.58962156833905 0 -1 0
185 1 3.8342829123038156 2.2137257666197345 41.58962156785022 0 0 0
183 1 8.946665247306136 6.641178434288019 41.58962156867301 0 -1 0
186 1 6.390473913675252 2.2137257669943504 41.589621568300466 0 0 0
188 1 5.112378579875184 4.427452100533972 41.589621568592705 0 0 0
189 1 7.6685695798751805 4.427452101572672 41.5896215682412 0 0 0
184 1 8.946664912303815 2.2137257673689774 41.589621568750715 -1 0 0
187 1 10.224760579917806 4.427452101053329 41.58962156841695 -1 0 0

Velocities

1 0 0 0
2 0 0 0
5 0 0 0
10 0 0 0
11 0 0 0
13 0 0 0
3 0 0 0
6 0 0 0
8 0 0 0
9 0 0 0
12 0 0 0
14 0 0 0
15 0 0 0
16 0 0 0
17 0 0 0
4 0 0 0
7 0 0 0
18 0 0 0
19 0 0 0
28 0 0 0
29 0 0 0
32 0 0 0
20 0 0 0
21 0 0 0
22 0 0 0
23 0 0 0
25 0 0 0
26 0 0 0
30 0 0 0
33 0 0 0
35 0 0 0
36 0 0 0
24 0 0 0
27 0 0 0
31 0 0 0
34 0 0 0
37 0 0 0
38 0 0 0
40 0 0 0
46 0 0 0
39 0 0 0
41 0 0 0
42 0 0 0
43 0 0 0
44 0 0 0
47 0 0 0
48 0 0 0
49 0 0 0
50 0 0 0
52 0 0 0
53 0 0 0
45 0 0 0
51 0 0 0
54 0 0 0
55 0 0 0
56 0 0 0
59 0 0 0
64 0 0 0
65 0 0 0
67 0 0 0
57 0 0 0
60 0 0 0
62 0 0 0
63 0 0 0
66 0 0 0
68 0 0 0
69 0 0 0
70 0 0 0
71 0 0 0
58 0 0 0
61 0 0 0
72 0 0 0
73 0 0 0
82 0 0 0
83 0 0 0
86 0 0 0
74 0 0 0
75 0 0 0
76 0 0 0
77 0 0 0
79 0 0 0
80 0 0 0
84 0 0 0
87 0 0 0
89 0 0 0
90 0 0 0
78 0 0 0
81 0 0 0
85 0 0 0
88 0 0 0
91 0 0 0
100 0 0 0
101 0 0 0
104 0 0 0
92 0 0 0
93 0 0 0
94 0 0 0
95 0 0 0
97 0 0 0
98 0 0 0
102 0 0 0
105 0 0 0
107 0 0 0
108 0 0 0
96 0 0 0
99 0 0 0
103 0 0 0
106 0 0 0
109 0 0 0
110 0 0 0
112 0 0 0
118 0 0 0
111 0 0 0
113 0 0 0
114 0 0 0
115 0 0 0
116 0 0 0
119 0 0 0
120 0 0 0
121 0 0 0
122 0 0 0
124 0 0 0
125 0 0 0
117 0 0 0
123 0 0 0
126 0 0 0
127 0 0 0
128 0 0 0
131 0 0 0
136 0 0 0
137 0 0 0
139 0 0 0
129 0 0 0
132 0 0 0
134 0 0 0
135 0 0 0
138 0 0 0
140 0 0 0
141 0 0 0
142 0 0 0
143 0 0 0
130 0 0 0
133 0 0 0
144 0 0 0
145 0 0 0
154 0 0 0
155 0 0 0
158 0 0 0
146 0 0 0
147 0 0 0
148 0 0 0
149 0 0 0
151 0 0 0
152 0 0 0
156 0 0 0
159 0 0 0
161 0 0 0
162 0 0 0
150 0 0 0
153 0 0 0
157 0 0 0
160 0 0 0
163 0 0 0
164 0 0 0
166 0 0 0
172 0 0 0
165 0 0 0
167 0 0 0
168 0 0 0
169 0 0 0
170 0 0 0
173 0 0 0
174 0 0 0
175 0 0 0
176 0 0 0
178 0 0 0
179 0 0 0
171 0 0 0
177 0 0 0
180 0 0 0
181 0 0 0
182 0 0 0
185 0 0 0
183 0 0 0
186 0 0 0
188 0 0 0
189 0 0 0
184 0 0 0
187 0 0 0
