LAMMPS data file via write_data, version 22 Jul 2025, timestep = 146, units = metal

351 atoms
3 atom types

0 7.668573 xlo xhi
0 6.641179 ylo yhi
0 81.397728 zlo zhi
3.834287 0 0 xy xz yz

Masses

1 63.55
2 63.55
3 63.55

Atoms # atomic

1 1 0.6237105118119033 0.3600674084902681 0.00026299481965532697 0 0 0
2 1 3.179901475210155 0.3600673998078147 0.0002630020213566013 0 0 0
5 1 4.457997172130529 2.573793725734584 0.0002630615476237943 0 0 0
10 1 1.8700737972980122 1.079614636505849 2.087651642297462 0 0 0
11 1 4.426264801459377 1.079614617174411 2.087651699868739 0 0 0
13 1 3.148169425621668 3.29334104032096 2.0876516759605503 0 0 0
3 1 5.736092496694099 0.3600674118024706 0.0002629633604518341 0 0 0
6 1 7.01418819522349 2.57379373826788 0.0002630536635696264 0 0 0
8 1 5.736092845653256 4.787520015093614 0.00026303418882892265 0 0 0
9 1 8.292283800722299 4.787520007600856 0.0002630121729712011 0 0 0
12 1 6.98245580340083 1.0796146164558915 2.0876516886926297 0 0 0
14 1 5.704360431340879 3.2933410022279843 2.0876516397606184 0 0 0
15 1 8.260551458951081 3.293341007268907 2.0876516257430455 0 0 0
16 1 4.426265089700865 5.507067325418787 2.087651701525668 0 0 0
17 1 6.982456105313389 5.507067337748506 2.0876516714610887 0 0 0
4 1 1.9018061527467163 2.5737937039372882 0.0002630594149394166 0 0 0
7 1 3.179901844619351 4.787520010363847 0.0002630126967744527 0 0 0
18 1 9.538647133198408 5.507067312294388 2.0876517319964636 0 0 0
19 1 3.1164397419545358 1.7991863614032142 4.175041637862574 0 0 0
28 1 0.528507721815515 0.30503016342760503 6.262422121107562 0 0 0
29 1 3.0846988117164016 0.3050301866289432 6.262422116274016 0 0 0
32 1 4.36279443533933 2.518756475355501 6.2624221190001 0 0 0
20 1 5.67263076946956 1.79918637399351 4.175041635548881 0 0 0
21 1 8.22882177579924 1.799186363389739 4.175041667467858 0 0 0
22 1 4.394535438153943 4.01291274642003 4.175041595538888 0 0 0
23 1 6.950726429772889 4.012912745021336 4.175041662121038 0 0 0
25 1 5.672631101904577 6.226639031819602 4.175041662053048 0 0 0
26 1 8.228822080590392 6.226639056557752 4.175041633561384 0 0 0
30 1 5.640889772095925 0.3050301608334663 6.262422131880591 0 0 0
33 1 6.9189854156349195 2.5187564713902386 6.262422103396186 0 0 0
35 1 5.640890096192258 4.732482864440233 6.2624221034208585 0 0 0
36 1 8.197081152680955 4.732482889517554 6.262422127607579 0 0 0
24 1 9.506917434144238 4.012912698000785 4.175041592298745 0 0 0
27 1 10.785013136821624 6.226639042533951 4.175041608020378 0 0 0
31 1 1.8066034168763028 2.518756531446206 6.262422138074263 0 0 0
34 1 3.0846990787229043 4.732482913236647 6.262422154481434 0 0 0
37 1 1.7748997377424565 1.0245744269198522 8.34981388210435 0 0 0
38 1 4.331090702958898 1.0245744150422662 8.349813902509414 0 0 0
40 1 3.052995360827574 3.238300730908108 8.349813924975184 0 0 0
46 1 3.021291029867186 1.7441165509402035 10.437209296821152 0 0 0
39 1 6.887281773927489 1.0245744602178566 8.349813905257612 0 0 0
41 1 5.609186439392481 3.2383007818752305 8.349813969369691 0 0 0
42 1 8.165377397945962 3.2383007627935783 8.349813925525732 0 0 0
43 1 4.331091111397457 5.452027093395349 8.349813909380707 0 0 0
44 1 6.887282038320238 5.452027068484194 8.349813903902565 0 0 0
47 1 5.57748199257828 1.7441165364261866 10.437209253075746 0 0 0
48 1 8.133673012052487 1.7441165164652452 10.43720928022117 0 0 0
49 1 4.299386656550582 3.9578428943928765 10.437209230368689 0 0 0
50 1 6.8555776782064255 3.957842893134243 10.4372092317852 0 0 0
52 1 5.577482325687234 6.171569208887297 10.437209301677562 0 0 0
53 1 8.13367337771161 6.171569203040903 10.437209307522147 0 0 0
45 1 9.443473034347791 5.452027067927728 8.349813890223066 0 0 0
51 1 9.411768659876374 3.9578429030217053 10.43720925906627 0 0 0
54 1 10.689864338701978 6.171569181679284 10.437209281777275 0 0 0
55 1 0.4334018674150765 0.24997280439542835 12.524593799859932 0 0 0
56 1 2.989592868877179 0.2499727902492366 12.524593769315787 0 0 0
59 1 4.26768854623673 2.4636991585863885 12.524593813875734 0 0 0
64 1 1.6797705093957536 0.9695715052177198 14.61197385877635 0 0 0
65 1 4.235961504213631 0.9695715228320486 14.611973849449855 0 0 0
67 1 2.9578661905968233 3.183297848361299 14.611973862142133 0 0 0
57 1 5.54578388197724 0.24997280500391209 12.524593793179617 0 0 0
60 1 6.823879525812181 2.4636991429363015 12.524593835086096 0 0 0
62 1 5.545784232820806 4.677425476178589 12.524593826920107 0 0 0
63 1 8.101975221468022 4.677425483728629 12.524593780644866 0 0 0
66 1 6.792152558143506 0.9695715150224443 14.61197382247228 0 0 0
68 1 5.514057173824067 3.1832978694751035 14.611973819327925 0 0 0
69 1 8.070248189812917 3.183297856700259 14.61197383998728 0 0 0
70 1 4.235961858931704 5.397024215107663 14.611973855350092 0 0 0
71 1 6.792152844128742 5.397024213217279 14.611973852355357 0 0 0
58 1 1.7114975287961807 2.463699160814732 12.524593783214149 0 0 0
61 1 2.9895932235569904 4.677425497394813 12.524593802892444 0 0 0
72 1 9.348343862590754 5.397024214620797 14.61197387271145 0 0 0
73 1 2.9261248260410113 1.6891546511099602 16.699347167050643 0 0 0
82 1 0.3381714540271514 0.19500281732201083 18.786728034712766 0 0 0
83 1 2.894362465070948 0.19500277729239726 18.786728043656765 0 0 0
86 1 4.172458114070804 2.4087291457532585 18.786727911086565 0 0 0
74 1 5.482315793396679 1.689154677132722 16.699347207331385 0 0 0
75 1 8.038506804694661 1.689154632667379 16.699347185889938 0 0 0
76 1 4.204220500449871 3.9028809093634496 16.6993471717524 0 0 0
77 1 6.760411429453317 3.902880919989443 16.699347174679776 0 0 0
79 1 5.4823161605204564 6.1166072646632665 16.699347130804107 0 0 0
80 1 8.038507124453885 6.116607285826642 16.69934712179539 0 0 0
84 1 5.450553489481808 0.19500275478423054 18.786728025254074 0 0 0
87 1 6.728649205741474 2.408729123667413 18.786727938571328 0 0 0
89 1 5.450553837935373 4.622455538930419 18.786727969297555 0 0 0
90 1 8.006744838938221 4.622455517304702 18.786728045434035 0 0 0
78 1 9.316602478097957 3.9028809070567876 16.6993471296218 0 0 0
81 1 10.594698149748924 6.116607270598973 16.699347130348823 0 0 0
85 1 1.6162671103541324 2.4087291421840593 18.786727978496522 0 0 0
88 1 2.894362786421482 4.6224555388528525 18.78672801063841 0 0 0
91 1 1.5845200518726603 0.914578625703154 20.874098273090052 0 0 0
92 1 4.140711108941249 0.9145786610824679 20.874098291222282 0 0 0
94 1 2.862615767622295 3.12830498683567 20.87409831827947 0 0 0
100 1 2.830796463112639 1.634167142545719 22.96150283258034 0 0 0
93 1 6.696902129363651 0.9145786446266723 20.874098301204064 0 0 0
95 1 5.418806760008688 3.1283049685768805 20.87409833241843 0 0 0
96 1 7.974997734412076 3.1283049313856295 20.874098269549062 0 0 0
97 1 4.140711425125328 5.342031350630046 20.874098291475615 0 0 0
98 1 6.69690239790595 5.342031328052314 20.87409823398202 0 0 0
101 1 5.386987449695227 1.6341671107135025 22.961502823976954 0 0 0
102 1 7.943178497353178 1.6341671959503166 22.961502829956228 0 0 0
103 1 4.1088921064355475 3.8478935180083575 22.96150284615997 0 0 0
104 1 6.66508320597347 3.847893556037443 22.961502895572345 0 0 0
106 1 5.386987878342473 6.061619837496722 22.961502858987508 0 0 0
107 1 7.943178808016032 6.061619811849319 22.96150287745725 0 0 0
99 1 9.253093482038288 5.342031340027404 20.87409824506344 0 0 0
105 1 9.221274127407268 3.847893533158135 22.961502875244477 0 0 0
108 1 10.49936974850562 6.061619811374524 22.961502830887913 0 0 0
109 1 0.24129585864652953 0.13916681152309693 25.046306488495812 0 0 0
110 1 2.7974868450356 0.13916680419231406 25.046306515016425 0 0 0
113 1 4.0755825409472175 2.3528931919291796 25.046306503801198 0 0 0
111 1 5.353677851841519 0.1391668283325695 25.0463065270962 0 0 0
114 1 6.631773540626072 2.352893203244316 25.046306489744303 0 0 0
116 1 5.353678211029601 4.566619476134759 25.046306474057456 0 0 0
117 1 7.909869172782937 4.56661944505752 25.046306503286438 0 0 0
112 1 1.5193915081739746 2.352893180742331 25.046306502305065 0 0 0
115 1 2.7974871914481483 4.566619474010853 25.0463064925996 0 0 0
118 1 2.7608001619351175 1.5938126350565731 27.13116660085351 0 0 0
127 1 1.4484361506801888 0.8361437364835672 29.218580885809057 0 0 0
128 1 4.004627176673065 0.8361437326573706 29.218580896561456 0 0 0
130 1 2.7265318146035495 3.0498700760812243 29.21858084899987 0 0 0
119 1 5.316991113423143 1.5938125880356488 27.13116661674753 0 0 0
120 1 7.873182157036767 1.5938126452473864 27.131166638364903 0 0 0
121 1 4.038895787475749 3.807538943855985 27.131166629716994 0 0 0
122 1 6.595086827204806 3.8075389542400773 27.1311665944258 0 0 0
124 1 5.316991475695773 6.021265322320788 27.13116659705222 0 0 0
125 1 7.873182508371322 6.021265338762424 27.131166509383686 0 0 0
129 1 6.5608181804879955 0.8361437404049772 29.21858089582949 0 0 0
131 1 5.28272284842812 3.049870074928482 29.218580805168813 0 0 0
132 1 7.838913826381 3.0498700786677713 29.218580878158942 0 0 0
133 1 4.0046275022449755 5.263596435975513 29.21858091112791 0 0 0
134 1 6.560818516507743 5.263596407063492 29.21858093838917 0 0 0
123 1 9.151277840344164 3.8075389814318013 27.131166557040476 0 0 0
126 1 10.429373414325028 6.021265286598585 27.131166573865816 0 0 0
135 1 9.117009497276374 5.263596404460375 29.218580984675828 0 0 0
136 1 0.13612128764930215 0.07849936065416506 31.305970821497453 0 0 0
137 1 2.6923122711115655 0.07849936658936572 31.305970848011807 0 0 0
140 1 3.9704079560800665 2.29222570353941 31.305970926258965 0 0 0
145 1 2.65808813210131 1.5345503796631588 33.39333994787017 0 0 0
138 1 5.248503289952083 0.07849936122510051 31.305970820384204 0 0 0
141 1 6.52659898341463 2.292225694003056 31.305970915757165 0 0 0
143 1 5.248503634543827 4.505952089811738 31.305970903567815 0 0 0
144 1 7.804694637421319 4.505952066479589 31.305970840347285 0 0 0
146 1 5.214279193163327 1.534550404816124 33.393339900577644 0 0 0
147 1 7.770470159926183 1.5345503982680189 33.39333995217439 0 0 0
148 1 3.9361838598877466 3.748276727313491 33.393339913620444 0 0 0
149 1 6.492374843865373 3.7482767382590176 33.39333991023311 0 0 0
151 1 5.214279492278662 5.962003068289236 33.39333993986961 0 0 0
152 1 7.770470461866161 5.962003023444712 33.39333991251203 0 0 0
139 1 1.414216930128429 2.292225696796911 31.3059708713031 0 0 0
142 1 2.6923126044930323 4.505952094230033 31.30597082654119 0 0 0
150 1 9.048565797581066 3.7482767197075892 33.39333994053977 0 0 0
153 1 10.326661510514741 5.9620030743568675 33.393339923290725 0 0 0
154 1 1.3457800161104196 0.7768915666591604 35.480702310343965 0 0 0
155 1 3.9019709903096147 0.7768916149113363 35.48070238511807 0 0 0
157 1 2.623875700844494 2.9906178439616067 35.480702367551736 0 0 0
163 1 0.03348071007396352 0.019274240857076186 37.56806206724809 0 0 0
164 1 2.5896716912622235 0.01927422953828993 37.568062069959254 0 0 0
167 1 3.8677674032565172 2.2330006048574345 37.568062019327535 0 0 0
156 1 6.4581619720847545 0.7768915831159535 35.480702381158714 0 0 0
158 1 5.180066622788157 2.990617839989734 35.48070239033604 0 0 0
159 1 7.736257668458633 2.9906178484106656 35.48070233749256 0 0 0
160 1 3.901971328236444 5.204344153084041 35.48070238947359 0 0 0
161 1 6.4581623279117295 5.204344183485982 35.4807023512607 0 0 0
165 1 5.145862766612327 0.019274232663329616 37.56806203309476 0 0 0
168 1 6.423958408747313 2.2330005576993748 37.56806204889458 0 0 0
170 1 5.145863052812048 4.446726988331292 37.56806206303746 0 0 0
171 1 7.70205405775401 4.446726980244493 37.56806206287066 0 0 0
162 1 9.014353348738002 5.2043441759023334 35.48070240849168 0 0 0
166 1 1.3115763329595265 2.233000574746237 37.568062045642016 0 0 0
169 1 2.589672066815682 4.446727011288919 37.56806202690341 0 0 0
172 1 2.555488927445586 1.4753885392043022 39.65543903944231 0 0 0
181 1 1.243197705331889 0.7177773928806069 41.742799995083935 0 0 0
182 1 3.7993887069927874 0.7177773691075641 41.74280001112787 0 0 0
184 1 2.521293375016932 2.931503654657057 41.74280002308633 0 0 0
173 1 5.111679838604071 1.4753885377226312 39.65543901258142 0 0 0
174 1 7.667870838671836 1.4753885552892678 39.65543901967821 0 0 0
175 1 3.8335845380181786 3.6891147914849127 39.65543900672476 0 0 0
176 1 6.3897755387098805 3.689114824974968 39.65543900925404 0 0 0
178 1 5.111680216936386 5.902841110110744 39.655438975542175 0 0 0
179 1 7.6678712078766225 5.902841136168918 39.65543900991646 0 0 0
183 1 6.355579773706706 0.717777385101107 41.74280000898949 0 0 0
185 1 5.07748440870511 2.931503676855135 41.74280000561934 0 0 0
186 1 7.633675412457812 2.9315036199353317 41.74279999087714 0 0 0
187 1 3.799389072332883 5.145230051402438 41.74280001686688 0 0 0
188 1 6.355580059853611 5.145230049403562 41.74280000511065 0 0 0
177 1 8.945966549986231 3.6891148386188464 39.65543902832876 0 0 0
180 1 10.22406216926992 5.902841118847997 39.65543898378977 0 0 0
189 1 8.9117710792955 5.1452300514284595 41.742800027572414 0 0 0
190 1 11.43374424597477 6.601350686967199 43.83016312403438 -1 -1 0
191 1 6.321362289023144 6.6013506970112195 43.830163062151016 0 -1 0
194 1 3.765170896167069 2.1738980583716074 43.83016297777627 0 0 0
199 1 2.452854171587219 1.4162478296276135 45.917525162200974 0 0 0
192 1 8.877553284230943 6.601350670297882 43.830163052241055 0 -1 0
195 1 6.321361933225637 2.1738980571322686 43.830163049383486 0 0 0
197 1 5.043266603024875 4.387624462918825 43.83016305090552 0 0 0
198 1 7.599457632814712 4.38762446250118 43.830163039656014 0 0 0
200 1 5.009045234637668 1.416247837358955 45.91752514945364 0 0 0
201 1 7.565236202962057 1.4162478233689257 45.91752511679112 0 0 0
202 1 3.7309498815387503 3.629974197958222 45.91752515464594 0 0 0
203 1 6.287140869239916 3.629974157188416 45.91752517465317 0 0 0
205 1 5.009045506705966 5.843700547144983 45.9175251086526 0 0 0
206 1 7.565236528234496 5.843700543528564 45.91752515246882 0 0 0
193 1 8.877552929242139 2.173898108560767 43.83016303857076 -1 0 0
196 1 10.155648570600952 4.387624449735211 43.830163030339406 -1 0 0
204 1 8.843331869395696 3.629974145384353 45.91752515356392 0 0 0
207 1 10.12142756025843 5.8437005540243465 45.9175250790476 0 0 0
208 1 1.1405435308955107 0.6585673866943401 48.004906609897716 0 0 0
209 1 3.6967345220103924 0.658567405598203 48.004906615612924 0 0 0
211 1 2.4186392055514028 2.8722936844579015 48.004906627468266 0 0 0
217 1 11.331037283317581 6.54206002260618 50.09232376431629 -1 -1 0
218 1 6.218655230318945 6.5420600059283 50.092323808945785 0 -1 0
221 1 3.6624639318284515 2.114607395674933 50.09232374087406 0 0 0
210 1 6.2529255967563575 0.6585673996725064 48.004906654212796 0 0 0
212 1 4.974830222274724 2.8722937027464677 48.00490662920629 0 0 0
213 1 7.531021220967966 2.8722936935902688 48.004906580075726 0 0 0
214 1 3.6967349043423106 5.086020085014882 48.00490664110266 0 0 0
215 1 6.252925862582652 5.086020057692228 48.004906570727144 0 0 0
219 1 8.774846307492854 6.542060047633727 50.092323761400046 0 -1 0
222 1 6.218654923144909 2.1146073908043372 50.092323784837724 0 0 0
224 1 4.940559607323525 4.328333742308882 50.092323824594956 0 0 0
225 1 7.496750565514955 4.328333707325226 50.092323869915894 0 0 0
216 1 8.809116887880986 5.086020043775906 48.00490659207782 0 0 0
220 1 8.774845895272595 2.1146073732839112 50.09232382693619 -1 0 0
223 1 10.052941629671784 4.328333736695077 50.09232380215636 -1 0 0
226 1 2.347700968010881 1.3555586009817728 52.17718405730845 0 0 0
227 1 4.903891907576811 1.3555586072508286 52.17718411102377 0 0 0
228 1 7.4600829571562395 1.3555585687496634 52.177184032712866 0 0 0
229 1 3.6257966178108205 3.569284813712906 52.17718405795201 0 0 0
230 1 6.181987565265227 3.5692848281717704 52.17718399390216 0 0 0
232 1 4.903892260960509 5.783011211533716 52.1771840242999 0 0 0
233 1 7.460083274982882 5.783011245343869 52.177184041066745 0 0 0
231 1 8.73817865311704 3.569284824709114 52.177183995199854 0 0 0
234 1 10.016274286380286 5.783011196934146 52.17718407895532 0 0 0
235 1 11.26107603246406 6.501710570793371 54.261993241140544 -1 -1 0
236 1 6.148694046064955 6.501710568265166 54.26199325308231 0 -1 0
239 1 3.5925026992901232 2.0742578780509593 54.26199321538263 0 0 0
244 1 1.0045010080310746 0.5801345460690271 56.349396795135085 0 0 0
245 1 3.5606920634348134 0.5801345993258414 56.34939682718012 0 0 0
247 1 2.282596806293824 2.7938608667603004 56.34939685384891 0 0 0
237 1 8.704885035636462 6.501710552931969 54.261993207373315 0 -1 0
240 1 6.148693722627602 2.0742578863165595 54.26199323850353 0 0 0
242 1 4.870598372485183 4.287984258066139 54.261993246842756 0 0 0
243 1 7.426789379375123 4.2879842298879085 54.2619932770881 0 0 0
246 1 6.116883086340045 0.5801345729024057 56.34939682848428 0 0 0
248 1 4.838787729502901 2.7938608735977537 56.34939688858756 0 0 0
249 1 7.394978691295245 2.793860797507775 56.34939682974419 0 0 0
250 1 3.5606924168076914 5.007587201998712 56.3493968290144 0 0 0
251 1 6.116883339152649 5.007587194008881 56.34939682304253 0 0 0
238 1 8.704884693624766 2.074257897775275 54.26199326663747 -1 0 0
241 1 9.982980347194855 4.287984250875128 54.26199324469696 -1 0 0
252 1 8.673074433379167 5.007587228538449 56.34939684165999 0 0 0
253 1 2.2508129337153573 1.299766964034414 58.43677142288558 0 0 0
262 1 11.165713843725182 6.446807999773402 60.52413279227014 -1 -1 0
263 1 6.053331859824263 6.446808008810819 60.52413282827056 0 -1 0
266 1 3.4971405219183933 2.0193552939906376 60.524132840560824 0 0 0
254 1 4.807003876539651 1.2997669456070977 58.43677139698935 0 0 0
255 1 7.363194901253146 1.2997669768186244 58.43677142554232 0 0 0
256 1 3.5289085565939056 3.5134932198759605 58.4367713820135 0 0 0
257 1 6.08509957260838 3.513493258657273 58.4367713912688 0 0 0
259 1 4.807004253158232 5.727219557572523 58.436771449970124 0 0 0
260 1 7.363195258176571 5.727219568189054 58.43677144256435 0 0 0
264 1 8.609522905299906 6.446808007127894 60.52413278559876 0 -1 0
267 1 6.053331555343473 2.0193552550241325 60.52413282752974 0 0 0
269 1 4.775236169307665 4.2330816625775105 60.52413279888299 0 0 0
270 1 7.33142719317076 4.233081627789627 60.52413280823534 0 0 0
258 1 8.64129058234897 3.513493285428204 58.43677142703393 0 0 0
261 1 9.919386184236375 5.72721955096643 58.43677145527184 0 0 0
265 1 8.609522517152472 2.0193552715899328 60.52413284137603 -1 0 0
268 1 9.88761822004826 4.2330816511003855 60.524132778594755 -1 0 0
271 1 0.9091941756437847 0.5251985490012675 62.61150241813889 0 0 0
272 1 3.4653851390755097 0.525198538796307 62.61150241344219 0 0 0
274 1 2.18728984223977 2.7389248504890777 62.61150242559004 0 0 0
280 1 2.155545270900512 1.2447580882251208 64.69888046531345 0 0 0
273 1 6.021576221118158 0.525198550419652 62.61150246693811 0 0 0
275 1 4.743480888216942 2.738924872973767 62.611502471176834 0 0 0
276 1 7.2996718641817555 2.738924845613437 62.61150243680144 0 0 0
277 1 3.4653855460519694 4.952651244310356 62.61150249909201 0 0 0
278 1 6.021576505467976 4.952651212213133 62.61150245676993 0 0 0
281 1 4.711736260091746 1.2447580929058712 64.69888041049077 0 0 0
282 1 7.267927236086995 1.2447580990185556 64.69888040550154 0 0 0
283 1 3.4336409247462445 3.458484436881143 64.69888042311109 0 0 0
284 1 5.989831913058147 3.4584844444983456 64.69888042709181 0 0 0
286 1 4.711736572522648 5.672210712885295 64.69888041894399 0 0 0
287 1 7.267927565958854 5.672210745032609 64.69888045558355 0 0 0
279 1 8.577767493252 4.95265118366215 62.61150247119035 0 0 0
285 1 8.546022927552192 3.458484448701089 64.6988804534309 0 0 0
288 1 9.824118580102182 5.672210738425587 64.69888038112684 0 0 0
289 1 11.070493477188188 6.391798005211123 66.78626973102197 -1 -1 0
290 1 5.958111435994436 6.391797975695387 66.78626965751027 0 -1 0
293 1 3.401920109200835 1.9643453064513923 66.78626964957641 0 0 0
298 1 0.8140293327560169 0.47019137090318114 68.87365593664084 0 0 0
299 1 3.3702203128735384 0.47019137405112676 68.87365600156151 0 0 0
301 1 2.0921250097524435 2.683917596046911 68.87365606382657 0 0 0
291 1 8.51430245653672 6.3917979778583405 66.78626969713078 0 -1 0
294 1 5.958111113945185 1.9643453095628827 66.78626968925195 0 0 0
296 1 4.680015796578011 4.1780716724291445 66.78626964136767 0 0 0
297 1 7.236206759089051 4.1780716555247706 66.7862696070769 0 0 0
300 1 5.926411302508281 0.4701913219630146 68.87365594420164 0 0 0
302 1 4.648315970606001 2.6839175614072976 68.87365603452878 0 0 0
303 1 7.204507030088731 2.6839175624393805 68.87365601115468 0 0 0
304 1 3.3702206208017595 4.897644006708932 68.87365597685763 0 0 0
305 1 5.9264116349129505 4.897644018949493 68.87365597764709 0 0 0
292 1 8.514302091156003 1.9643452922509674 66.78626966188362 -1 0 0
295 1 9.792397755658545 4.178071654315445 66.7862696463541 -1 0 0
306 1 8.482602707851687 4.897644010740189 68.87365600088152 0 0 0
307 1 2.0604051878660132 1.1897450201142936 70.96104462025295 0 0 0
316 1 10.975365478023155 6.336765141920235 73.04843059587164 -1 -1 0
317 1 5.862983478518757 6.336765172562118 73.04843062394103 0 -1 0
320 1 3.306792112742746 1.9093124972799116 73.04843064587659 0 0 0
308 1 4.616596246803981 1.1897450331964001 70.96104460861349 0 0 0
309 1 7.172787215625798 1.1897450402908534 70.9610446729055 0 0 0
310 1 3.3385008590886915 3.4034713771163414 70.96104460855565 0 0 0
311 1 5.894691897441476 3.4034713844265574 70.9610446540917 0 0 0
313 1 4.616596527505468 5.617197663220543 70.96104471470836 0 0 0
314 1 7.172787504973262 5.617197628551707 70.96104467328429 0 0 0
318 1 8.419174485431732 6.336765138369197 73.0484306263153 0 -1 0
321 1 5.862983089938883 1.9093124861644708 73.0484306343 0 0 0
323 1 4.5848877706819575 4.123038834653149 73.04843063481377 0 0 0
324 1 7.141078822593729 4.123038842191476 73.04843062874772 0 0 0
312 1 8.45088283584337 3.403471379938164 70.96104463953014 0 0 0
315 1 9.728978509608442 5.61719765066181 70.96104467398212 0 0 0
319 1 8.4191741355347 1.9093125041369259 73.04843062404919 -1 0 0
322 1 9.697269791054808 4.123038848934327 73.04843061399922 -1 0 0
325 1 0.7188578424436454 0.4151517101098346 75.1358223755158 0 0 0
326 1 3.2750488631766532 0.4151516806623765 75.13582236437884 0 0 0
328 1 1.9969535447293403 2.6288780176244413 75.1358223644321 0 0 0
334 1 1.9652171602121355 1.1347131944632562 77.2232080792906 0 0 0
327 1 5.831239908911911 0.4151517255282031 75.1358223972805 0 0 0
329 1 4.5531445865037625 2.6288780223599075 75.13582233573555 0 0 0
330 1 7.109335547498828 2.6288779971662892 75.13582231551854 0 0 0
331 1 3.275049221946499 4.842604399543204 75.13582235552943 0 0 0
332 1 5.8312402088863315 4.842604371473925 75.13582229254915 0 0 0
335 1 4.521408136921121 1.1347131729090019 77.22320808242088 0 0 0
336 1 7.077599151870505 1.1347131633742567 77.22320807506829 0 0 0
337 1 3.243312773110394 3.3484395562635987 77.22320810709934 0 0 0
338 1 5.799503780441006 3.348439575009032 77.22320817917497 0 0 0
340 1 4.521408445448985 5.562165905924162 77.22320810644074 0 0 0
341 1 7.077599468642861 5.562165904641424 77.22320811585871 0 0 0
333 1 8.387431198027361 4.8426043987981 75.13582233682425 0 0 0
339 1 8.355694793263806 3.3484395826070856 77.22320812446256 0 0 0
342 1 9.633790413512234 5.562165877381177 77.22320805385638 0 0 0
343 1 10.88015652774484 6.281723314487021 79.3106020448114 -1 -1 0
344 1 5.7677745091994375 6.281723280452102 79.31060201336273 0 -1 0
347 1 3.2115831498873613 1.8542705943649607 79.31060199047491 0 0 0
345 1 8.323965530756169 6.281723298621773 79.31060202382861 0 -1 0
348 1 5.767774180319085 1.8542705964185517 79.31060197693932 0 0 0
350 1 4.4896788506228855 4.067996955291609 79.31060195384987 0 0 0
351 1 7.04586982128415 4.067996938588973 79.31060195483276 0 0 0
346 1 8.323965128633684 1.8542705935069226 79.31060201168141 -1 0 0
349 1 9.602060859171758 4.067996961853957 79.31060199282545 -1 0 0

Velocities

1 0 0 0
2 0 0 0
5 0 0 0
10 0 0 0
11 0 0 0
13 0 0 0
3 0 0 0
6 0 0 0
8 0 0 0
9 0 0 0
12 0 0 0
14 0 0 0
15 0 0 0
16 0 0 0
17 0 0 0
4 0 0 0
7 0 0 0
18 0 0 0
19 0 0 0
28 0 0 0
29 0 0 0
32 0 0 0
20 0 0 0
21 0 0 0
22 0 0 0
23 0 0 0
25 0 0 0
26 0 0 0
30 0 0 0
33 0 0 0
35 0 0 0
36 0 0 0
24 0 0 0
27 0 0 0
31 0 0 0
34 0 0 0
37 0 0 0
38 0 0 0
40 0 0 0
46 0 0 0
39 0 0 0
41 0 0 0
42 0 0 0
43 0 0 0
44 0 0 0
47 0 0 0
48 0 0 0
49 0 0 0
50 0 0 0
52 0 0 0
53 0 0 0
45 0 0 0
51 0 0 0
54 0 0 0
55 0 0 0
56 0 0 0
59 0 0 0
64 0 0 0
65 0 0 0
67 0 0 0
57 0 0 0
60 0 0 0
62 0 0 0
63 0 0 0
66 0 0 0
68 0 0 0
69 0 0 0
70 0 0 0
71 0 0 0
58 0 0 0
61 0 0 0
72 0 0 0
73 0 0 0
82 0 0 0
83 0 0 0
86 0 0 0
74 0 0 0
75 0 0 0
76 0 0 0
77 0 0 0
79 0 0 0
80 0 0 0
84 0 0 0
87 0 0 0
89 0 0 0
90 0 0 0
78 0 0 0
81 0 0 0
85 0 0 0
88 0 0 0
91 0 0 0
92 0 0 0
94 0 0 0
100 0 0 0
93 0 0 0
95 0 0 0
96 0 0 0
97 0 0 0
98 0 0 0
101 0 0 0
102 0 0 0
103 0 0 0
104 0 0 0
106 0 0 0
107 0 0 0
99 0 0 0
105 0 0 0
108 0 0 0
109 0 0 0
110 0 0 0
113 0 0 0
111 0 0 0
114 0 0 0
116 0 0 0
117 0 0 0
112 0 0 0
115 0 0 0
118 0 0 0
127 0 0 0
128 0 0 0
130 0 0 0
119 0 0 0
120 0 0 0
121 0 0 0
122 0 0 0
124 0 0 0
125 0 0 0
129 0 0 0
131 0 0 0
132 0 0 0
133 0 0 0
134 0 0 0
123 0 0 0
126 0 0 0
135 0 0 0
136 0 0 0
137 0 0 0
140 0 0 0
145 0 0 0
138 0 0 0
141 0 0 0
143 0 0 0
144 0 0 0
146 0 0 0
147 0 0 0
148 0 0 0
149 0 0 0
151 0 0 0
152 0 0 0
139 0 0 0
142 0 0 0
150 0 0 0
153 0 0 0
154 0 0 0
155 0 0 0
157 0 0 0
163 0 0 0
164 0 0 0
167 0 0 0
156 0 0 0
158 0 0 0
159 0 0 0
160 0 0 0
161 0 0 0
165 0 0 0
168 0 0 0
170 0 0 0
171 0 0 0
162 0 0 0
166 0 0 0
169 0 0 0
172 0 0 0
181 0 0 0
182 0 0 0
184 0 0 0
173 0 0 0
174 0 0 0
175 0 0 0
176 0 0 0
178 0 0 0
179 0 0 0
183 0 0 0
185 0 0 0
186 0 0 0
187 0 0 0
188 0 0 0
177 0 0 0
180 0 0 0
189 0 0 0
190 0 0 0
191 0 0 0
194 0 0 0
199 0 0 0
192 0 0 0
195 0 0 0
197 0 0 0
198 0 0 0
200 0 0 0
201 0 0 0
202 0 0 0
203 0 0 0
205 0 0 0
206 0 0 0
193 0 0 0
196 0 0 0
204 0 0 0
207 0 0 0
208 0 0 0
209 0 0 0
211 0 0 0
217 0 0 0
218 0 0 0
221 0 0 0
210 0 0 0
212 0 0 0
213 0 0 0
214 0 0 0
215 0 0 0
219 0 0 0
222 0 0 0
224 0 0 0
225 0 0 0
216 0 0 0
220 0 0 0
223 0 0 0
226 0 0 0
227 0 0 0
228 0 0 0
229 0 0 0
230 0 0 0
232 0 0 0
233 0 0 0
231 0 0 0
234 0 0 0
235 0 0 0
236 0 0 0
239 0 0 0
244 0 0 0
245 0 0 0
247 0 0 0
237 0 0 0
240 0 0 0
242 0 0 0
243 0 0 0
246 0 0 0
248 0 0 0
249 0 0 0
250 0 0 0
251 0 0 0
238 0 0 0
241 0 0 0
252 0 0 0
253 0 0 0
262 0 0 0
263 0 0 0
266 0 0 0
254 0 0 0
255 0 0 0
256 0 0 0
257 0 0 0
259 0 0 0
260 0 0 0
264 0 0 0
267 0 0 0
269 0 0 0
270 0 0 0
258 0 0 0
261 0 0 0
265 0 0 0
268 0 0 0
271 0 0 0
272 0 0 0
274 0 0 0
280 0 0 0
273 0 0 0
275 0 0 0
276 0 0 0
277 0 0 0
278 0 0 0
281 0 0 0
282 0 0 0
283 0 0 0
284 0 0 0
286 0 0 0
287 0 0 0
279 0 0 0
285 0 0 0
288 0 0 0
289 0 0 0
290 0 0 0
293 0 0 0
298 0 0 0
299 0 0 0
301 0 0 0
291 0 0 0
294 0 0 0
296 0 0 0
297 0 0 0
300 0 0 0
302 0 0 0
303 0 0 0
304 0 0 0
305 0 0 0
292 0 0 0
295 0 0 0
306 0 0 0
307 0 0 0
316 0 0 0
317 0 0 0
320 0 0 0
308 0 0 0
309 0 0 0
310 0 0 0
311 0 0 0
313 0 0 0
314 0 0 0
318 0 0 0
321 0 0 0
323 0 0 0
324 0 0 0
312 0 0 0
315 0 0 0
319 0 0 0
322 0 0 0
325 0 0 0
326 0 0 0
328 0 0 0
334 0 0 0
327 0 0 0
329 0 0 0
330 0 0 0
331 0 0 0
332 0 0 0
335 0 0 0
336 0 0 0
337 0 0 0
338 0 0 0
340 0 0 0
341 0 0 0
333 0 0 0
339 0 0 0
342 0 0 0
343 0 0 0
344 0 0 0
347 0 0 0
345 0 0 0
348 0 0 0
350 0 0 0
351 0 0 0
346 0 0 0
349 0 0 0
