LAMMPS data file via write_data, version 22 Jul 2025, timestep = 9, units = metal

135 atoms
3 atom types

0 7.668573 xlo xhi
0 6.641179 ylo yhi
0 31.306818 zlo zhi
3.834287 0 0 xy xz yz

Masses

1 63.55
2 63.55
3 63.55

Atoms # atomic

1 1 7.66857292643482 1.1502450441816595e-07 31.305052311275013 -1 0 -1
2 1 2.556190932223234 1.112656938031508e-07 31.305052309738045 0 0 -1
5 1 3.83428659479409 2.213726447914424 31.305052304302354 0 0 -1
10 1 1.2780954482773692 0.7379088922744221 2.0839973008286394 0 0 0
11 1 3.834286448277367 0.737908886912362 2.0839973039762443 0 0 0
13 1 2.556191114465828 2.9516352231136675 2.083997305559801 0 0 0
3 1 5.1123819264348285 1.075069014740502e-07 31.305052308201056 0 0 -1
6 1 6.390477589194957 2.2137264487896675 31.305052306224837 0 0 -1
8 1 5.112382258490991 4.427452777125855 31.305052303210523 0 0 -1
9 1 7.668573258490995 4.427452780047954 31.30505230451557 0 0 -1
12 1 6.390477440272207 0.7379088895933946 2.08399730240243 0 0 0
14 1 5.112382110479755 2.951635222799885 2.0839973057330243 0 0 0
15 1 7.668573110479771 2.9516352234274943 2.0839973053865513 0 0 0
16 1 3.8342867782678303 5.16536155226846 2.083997305367459 0 0 0
17 1 6.390477777132107 5.165361552220122 2.0839973042328657 0 0 0
4 1 8.94666859479409 2.21372644966485 31.305052308147317 -1 0 -1
7 1 10.2247642600009 4.427452778586848 31.30505230386304 -1 0 -1
18 1 8.946668778267837 5.165361552171775 2.083997303098262 0 0 0
19 1 2.556190955621757 1.4758176675460801 4.172667003418801 0 0 0
28 1 7.668572777236382 1.0135430721460945e-07 6.261326183445692 -1 0 0
29 1 2.5561907812189686 1.0268161974978034e-07 6.261326184309964 0 0 0
32 1 3.8342864480762895 2.213726444078589 6.261326184305701 0 0 0
20 1 5.11238194750371 1.4758176672771492 4.172667003060953 0 0 0
21 1 7.668572947503723 1.4758176678150305 4.172667003776649 0 0 0
22 1 3.8342866186138425 3.6895440002654385 4.1726670009877465 0 0 0
23 1 6.3904776153833005 3.6895440002426567 4.172667002424693 0 0 0
25 1 5.112382283159988 5.9032703285941395 4.1726670054967 0 0 0
26 1 7.668573283159992 5.903270326073133 4.172667008606253 0 0 0
30 1 5.112381777236391 1.0400896430438357e-07 6.261326185174269 0 0 0
33 1 6.390477441339238 2.2137264409684883 6.261326185078909 0 0 0
35 1 5.112382108989399 4.427452766843614 6.261326187053404 0 0 0
36 1 7.668573108989422 4.427452771043572 6.261326184720068 0 0 0
24 1 8.946668618613838 3.689544000219819 4.172667003861637 0 0 0
27 1 10.22476427633858 5.903270327333623 4.1726670070514675 0 0 0
31 1 8.94666844807631 2.213726437858348 6.261326185852128 -1 0 0
34 1 10.224764106217151 4.427452768943559 6.261326185886733 -1 0 0
37 1 1.2780952528918483 0.7379088700791984 8.347136286439413 0 0 0
38 1 3.834286252891836 0.7379088765533232 8.347136287632853 0 0 0
40 1 2.556190924406735 2.951635206040185 8.347136289395348 0 0 0
46 1 7.6685727737783544 1.0001578116945582e-07 10.432947742647213 -1 0 0
47 1 2.556190776646369 1.0119935399441167e-07 10.432947741409615 0 0 0
50 1 3.834286444617411 2.2137264399107184 10.432947735245298 0 0 0
39 1 6.390477253412732 0.7379088733162842 8.347136287036133 0 0 0
41 1 5.112381921018951 2.951635205798 8.347136289497803 0 0 0
42 1 7.66857292101899 2.9516352062823996 8.347136289292877 0 0 0
43 1 3.8342865799596244 5.1653615363943475 8.347136289120508 0 0 0
44 1 6.3904775808413685 5.165361539854377 8.347136289805455 0 0 0
48 1 5.112381773778364 1.0238296101045325e-07 10.432947740171986 0 0 0
51 1 6.390477437930012 2.2137264371339294 10.432947736195853 0 0 0
53 1 5.112382105518467 4.42745276617053 10.432947736690712 0 0 0
54 1 7.668573105518488 4.427452769178993 10.432947740756994 0 0 0
45 1 8.946668579959642 5.165361543314407 8.347136290490408 0 0 0
49 1 8.946668444617432 2.213726434357103 10.432947737146403 -1 0 0
52 1 10.22476410255703 4.427452767674732 10.43294773872386 -1 0 0
55 1 2.556190941056657 1.475817658411277 12.521598885741344 0 0 0
64 1 1.278095418615988 0.7379088714522207 14.610221350193942 0 0 0
65 1 3.8342864186159775 0.7379088675313058 14.61022134781803 0 0 0
67 1 2.5561910844531206 2.951635203408406 14.610221348371608 0 0 0
56 1 5.112381934283409 1.4758176560497016 12.521598885166155 0 0 0
57 1 7.668572934283423 1.4758176607728652 12.52159888631653 0 0 0
58 1 3.8342866047425983 3.6895439898043714 12.521598885857838 0 0 0
59 1 6.3904775994741385 3.689543989893166 12.52159888446468 0 0 0
61 1 5.112382265389833 5.9032703192385325 12.52159888448831 0 0 0
62 1 7.668573265389835 5.903270318026899 12.521598881533912 0 0 0
66 1 6.390477415909652 0.7379088694917623 14.610221349005991 0 0 0
68 1 5.112382081409018 2.951635201271217 14.610221349824059 0 0 0
69 1 7.66857308140902 2.9516352055455815 14.610221346919184 0 0 0
70 1 3.8342867471054713 5.165361534380957 14.610221347738957 0 0 0
71 1 6.390477744467907 5.165361535461309 14.610221347182126 0 0 0
60 1 8.946668604742595 3.6895439899819187 12.521598883071531 0 0 0
63 1 10.224764261924253 5.903270318632699 12.521598883011118 0 0 0
72 1 8.946668747105472 5.165361536541662 14.610221346625297 0 0 0
73 1 7.6685729167765 1.0219981338829253e-07 16.698872617784136 -1 0 0
74 1 2.556190919653963 1.0019226067300342e-07 16.698872617601356 0 0 0
77 1 3.8342865850906733 2.213726433376294 16.698872622081176 0 0 0
82 1 2.556191115156423 1.475817674012458 18.784687213070793 0 0 0
75 1 5.112381916776505 9.818471380590502e-08 16.698872617418576 0 0 0
78 1 6.390477577171378 2.2137264352517727 16.698872620167972 0 0 0
80 1 5.112382249075569 4.427452767214804 16.698872619834656 0 0 0
81 1 7.668573249075572 4.427452765114958 16.69887261882249 0 0 0
83 1 5.11238210868133 1.4758176639543985 18.784687213487647 0 0 0
84 1 7.668573108681327 1.4758176840704849 18.784687212653942 0 0 0
85 1 3.834286783161979 3.6895440057254727 18.784687214288336 0 0 0
86 1 6.390477776899253 3.689544006762213 18.784687214302174 0 0 0
88 1 5.112382444122488 5.903270335482082 18.78468721262896 0 0 0
89 1 7.6685734441224795 5.903270334385319 18.784687213485817 0 0 0
76 1 8.94666858509067 2.2137264371272036 16.69887261825475 -1 0 0
79 1 10.224764251909386 4.42745276616484 16.69887261932858 -1 0 0
87 1 8.946668783161943 3.689544007798884 18.784687214316005 0 0 0
90 1 10.22476444249724 5.903270334933635 18.784687213057385 0 0 0
91 1 7.6685729167905015 1.0267554520521086e-07 20.870501285140673 -1 0 0
92 1 2.556190919434093 1.0079085662459754e-07 20.87050128534219 0 0 0
95 1 3.8342865850301378 2.213726433069578 20.870501278696302 0 0 0
100 1 1.278095419265808 0.7379088717705797 22.959149790858966 0 0 0
101 1 3.8342864192657946 0.7379088680184057 22.959149791691576 0 0 0
103 1 2.556191084868379 2.9516352038579323 22.959149789657896 0 0 0
93 1 5.112381916790508 9.89061722335451e-08 20.870501285543718 0 0 0
96 1 6.390477577092543 2.2137264348628563 20.870501281019596 0 0 0
98 1 5.112382248920893 4.4274527672424915 20.870501282604547 0 0 0
99 1 7.668573248920897 4.427452764809706 20.870501284455194 0 0 0
102 1 6.39047741529528 0.7379088698944928 22.959149791275262 0 0 0
104 1 5.112382081356386 2.951635201905449 22.95914978841224 0 0 0
105 1 7.668573081356389 2.9516352058104096 22.959149790903528 0 0 0
106 1 3.8342867475661806 5.165361533563901 22.95914979053091 0 0 0
107 1 6.390477744609116 5.165361535012835 22.959149790114772 0 0 0
94 1 8.946668585030139 2.2137264366560885 20.870501283342914 -1 0 0
97 1 10.224764252189221 4.427452766026056 20.87050128352987 -1 0 0
108 1 8.946668747566179 5.165361536461771 22.959149789698632 0 0 0
109 1 2.5561909452854232 1.4758176618949563 25.04776773106092 0 0 0
118 1 7.6685727915931645 1.0711463576820285e-07 27.136428700301497 -1 0 0
119 1 2.556190796316773 1.069192683321163e-07 27.136428700254434 0 0 0
122 1 3.8342864653081383 2.2137264472679496 27.136428704624134 0 0 0
110 1 5.112381937595862 1.4758176599676731 25.047767731858364 0 0 0
111 1 7.66857293759587 1.4758176638222569 25.047767730263462 0 0 0
112 1 3.834286608911394 3.6895439899771834 25.047767734071492 0 0 0
113 1 6.390477601209645 3.689543989551002 25.04776773582394 0 0 0
115 1 5.112382268004454 5.9032703202786205 25.047767734209877 0 0 0
116 1 7.668573268004459 5.90327032049782 25.047767737394867 0 0 0
120 1 5.112381791593174 1.0672393680160276e-07 27.13642870020739 0 0 0
123 1 6.3904774557802995 2.213726445406343 27.136428704175287 0 0 0
125 1 5.112382127036233 4.427452775616461 27.136428702680128 0 0 0
126 1 7.668573127036247 4.427452775848627 27.136428697452804 0 0 0
114 1 8.946668608911398 3.6895439891247905 25.047767737576365 0 0 0
117 1 10.224764266245746 5.903270320388201 25.04776773580236 0 0 0
121 1 8.946668465308152 2.2137264435446857 27.136428703726445 -1 0 0
124 1 10.224764124200998 4.427452775732513 27.136428700066457 -1 0 0
127 1 1.2780953234827872 0.737908887114185 29.222191593678193 0 0 0
128 1 3.834286323482792 0.7379088892233372 29.222191597763594 0 0 0
130 1 2.556190993020186 2.951635219973735 29.222191598388946 0 0 0
129 1 6.390477318663292 0.7379088881687985 29.22219159572088 0 0 0
131 1 5.112381987424163 2.95163522376192 29.222191599550513 0 0 0
132 1 7.668572987424206 2.951635216185611 29.222191597227393 0 0 0
133 1 3.8342866529264685 5.165361551159551 29.22219159883065 0 0 0
134 1 6.39047765445965 5.165361552399952 29.222191599704015 0 0 0
135 1 8.946668652926501 5.165361553640345 29.22219160057737 0 0 0

Velocities

1 0 0 0
2 0 0 0
5 0 0 0
10 0 0 0
11 0 0 0
13 0 0 0
3 0 0 0
6 0 0 0
8 0 0 0
9 0 0 0
12 0 0 0
14 0 0 0
15 0 0 0
16 0 0 0
17 0 0 0
4 0 0 0
7 0 0 0
18 0 0 0
19 0 0 0
28 0 0 0
29 0 0 0
32 0 0 0
20 0 0 0
21 0 0 0
22 0 0 0
23 0 0 0
25 0 0 0
26 0 0 0
30 0 0 0
33 0 0 0
35 0 0 0
36 0 0 0
24 0 0 0
27 0 0 0
31 0 0 0
34 0 0 0
37 0 0 0
38 0 0 0
40 0 0 0
46 0 0 0
47 0 0 0
50 0 0 0
39 0 0 0
41 0 0 0
42 0 0 0
43 0 0 0
44 0 0 0
48 0 0 0
51 0 0 0
53 0 0 0
54 0 0 0
45 0 0 0
49 0 0 0
52 0 0 0
55 0 0 0
64 0 0 0
65 0 0 0
67 0 0 0
56 0 0 0
57 0 0 0
58 0 0 0
59 0 0 0
61 0 0 0
62 0 0 0
66 0 0 0
68 0 0 0
69 0 0 0
70 0 0 0
71 0 0 0
60 0 0 0
63 0 0 0
72 0 0 0
73 0 0 0
74 0 0 0
77 0 0 0
82 0 0 0
75 0 0 0
78 0 0 0
80 0 0 0
81 0 0 0
83 0 0 0
84 0 0 0
85 0 0 0
86 0 0 0
88 0 0 0
89 0 0 0
76 0 0 0
79 0 0 0
87 0 0 0
90 0 0 0
91 0 0 0
92 0 0 0
95 0 0 0
100 0 0 0
101 0 0 0
103 0 0 0
93 0 0 0
96 0 0 0
98 0 0 0
99 0 0 0
102 0 0 0
104 0 0 0
105 0 0 0
106 0 0 0
107 0 0 0
94 0 0 0
97 0 0 0
108 0 0 0
109 0 0 0
118 0 0 0
119 0 0 0
122 0 0 0
110 0 0 0
111 0 0 0
112 0 0 0
113 0 0 0
115 0 0 0
116 0 0 0
120 0 0 0
123 0 0 0
125 0 0 0
126 0 0 0
114 0 0 0
117 0 0 0
121 0 0 0
124 0 0 0
127 0 0 0
128 0 0 0
130 0 0 0
129 0 0 0
131 0 0 0
132 0 0 0
133 0 0 0
134 0 0 0
135 0 0 0
