LAMMPS data file via write_data, version 22 Jul 2025, timestep = 29, units = metal

243 atoms
3 atom types

0 7.668573 xlo xhi
0 6.641179 ylo yhi
0 56.352273 zlo zhi
3.834287 0 0 xy xz yz

Masses

1 63.55
2 63.55
3 63.55

Atoms # atomic

1 1 1.8443390057794586e-05 3.4920863337190156e-06 0.15476566263553243 0 0 0
2 1 2.5562094428898576 3.4923311765967466e-06 0.15476566312621376 0 0 0
5 1 3.834305109083865 2.213729825269989 0.15476566299866715 0 0 0
10 1 1.2781035008073407 0.7379103617524287 2.2230144563191283 0 0 0
11 1 3.834294500807338 0.7379103617505508 2.2230144566447447 0 0 0
13 1 2.5561991674874234 2.9516366950015893 2.2230144566793197 0 0 0
3 1 5.1124004433900465 3.4925759853981595e-06 0.15476566361690752 0 0 0
6 1 6.39049611006251 2.21372982555582 0.15476566316244555 0 0 0
8 1 5.112400776282244 4.427456158728977 0.15476566371348188 0 0 0
9 1 7.6685917762822235 4.427456159533688 0.15476566354130095 0 0 0
12 1 6.390485501526453 0.7379103617514929 2.223014456481962 0 0 0
14 1 5.112390167562183 2.9516366946907513 2.2230144565844507 0 0 0
15 1 7.668581167562181 2.951636695312423 2.22301445677418 0 0 0
16 1 3.8342948347165087 5.1653630283144505 2.223014456661612 0 0 0
17 1 6.390485834218607 5.1653630285440615 2.2230144568721424 0 0 0
4 1 1.2781141090838668 2.2137298258416798 0.15476566332618932 0 0 0
7 1 2.5562097763555274 4.4274561591313315 0.15476566362739613 0 0 0
18 1 8.94667683471651 5.165363028773669 2.223014457082677 0 0 0
19 1 2.556194396590314 1.4758182922721297 4.298443459096475 0 0 0
28 1 1.2784974491521401e-06 3.718330324461439e-07 6.3748821977031565 0 0 0
29 1 2.5561922780984565 3.7229414497896585e-07 6.374882197891614 0 0 0
32 1 3.834287944398482 2.2137267055493433 6.374882197816917 0 0 0
20 1 5.11238539683175 1.4758182923358876 4.298443459076846 0 0 0
21 1 7.6685763968317575 1.4758182922083622 4.298443459116119 0 0 0
22 1 3.834290063595854 3.689544625488926 4.2984434590370135 0 0 0
23 1 6.390481063755862 3.6895446254841677 4.298443459077449 0 0 0
25 1 5.112385730055126 5.90327095853577 4.298443459342262 0 0 0
26 1 7.668576730055124 5.903270958890528 4.298443459416085 0 0 0
30 1 5.112383278497437 3.7275524503242666e-07 6.374882198080084 0 0 0
33 1 6.390478945274469 2.2137267053945444 6.374882197785335 0 0 0
35 1 5.112383611884203 4.427453038925034 6.374882197831833 0 0 0
36 1 7.668574611884198 4.427453039572056 6.374882198078723 0 0 0
24 1 8.946672063595855 3.6895446254794413 4.298443459117899 0 0 0
27 1 10.224767730248644 5.903270958713158 4.29844345937918 0 0 0
31 1 1.2780969443984918 2.2137267052397527 6.37488219775375 0 0 0
34 1 2.556192611341161 4.4274530392485465 6.374882197955285 0 0 0
37 1 1.2780959604786868 0.7379089935579177 8.45131436751075 0 0 0
38 1 3.8342869604786847 0.7379089939248125 8.451314367774307 0 0 0
40 1 2.55619162737673 2.9516353267444346 8.45131436756644 0 0 0
46 1 2.5561911239098833 1.4758177029958837 10.527757151314505 0 0 0
39 1 6.390477961690008 0.7379089937413666 8.451314367642533 0 0 0
41 1 5.1123826280278015 2.951635326382874 8.451314367489646 0 0 0
42 1 7.668573628027801 2.9516353271059947 8.451314367643224 0 0 0
43 1 3.834287294739915 5.165361660170698 8.451314367633925 0 0 0
44 1 6.3904782942456295 5.165361660567273 8.451314367677792 0 0 0
47 1 5.112382124365324 1.4758177028090624 10.527757151419024 0 0 0
48 1 7.668573124365328 1.4758177031827073 10.527757151209984 0 0 0
49 1 3.8342867915181795 3.689544036010704 10.52775715153554 0 0 0
50 1 6.39047779152372 3.689544036307256 10.527757151613848 0 0 0
52 1 5.112382457535826 5.903270369573182 10.527757151175315 0 0 0
53 1 7.668573457535821 5.903270369487921 10.527757151427009 0 0 0
45 1 8.946669294739912 5.165361660963847 8.451314367721666 0 0 0
51 1 8.94666879151818 3.689544036603812 10.527757151692159 0 0 0
54 1 10.224764457974548 5.903270369530554 10.527757151301161 0 0 0
55 1 7.668572820036658 1.1712177369235601e-07 12.604218691519868 -1 0 0
56 1 2.5561908193004634 1.1705219184296827e-07 12.604218691608805 0 0 0
59 1 3.8342864861036157 2.2137264500382288 12.60421869118236 0 0 0
64 1 1.278095259378972 0.7379088803391544 14.680686519196403 0 0 0
65 1 3.834286259378972 0.737908880022412 14.680686518935316 0 0 0
67 1 2.556190926227489 2.951635213388001 14.680686518871697 0 0 0
57 1 5.112381820036657 1.1698261042097017e-07 12.604218691697742 0 0 0
60 1 6.390477486861805 2.2137264501789073 12.604218691286325 0 0 0
62 1 5.112382153291993 4.427452783999659 12.604218691352022 0 0 0
63 1 7.668573153291992 4.427452783999335 12.6042186917462 0 0 0
66 1 6.390477260288412 0.7379088801807833 14.68068651906586 0 0 0
68 1 5.112381926577787 2.951635213213185 14.680686518729377 0 0 0
69 1 7.668572926577788 2.9516352135628168 14.680686519014014 0 0 0
70 1 3.834286593013105 5.165361547037639 14.680686518926759 0 0 0
71 1 6.390477592871247 5.16536154710596 14.680686518902888 0 0 0
58 1 8.946668486103615 2.213726450319589 12.60421869139029 -1 0 0
61 1 10.224764153221104 4.427452783999498 12.604218691549109 -1 0 0
72 1 8.946668593013102 5.1653615471742835 14.680686518879018 0 0 0
73 1 2.5561907238745176 1.4758176484130767 16.75719170676609 0 0 0
82 1 7.66857252729584 8.65866178949214e-08 18.83026552431881 -1 0 0
83 1 2.5561905269973026 8.638859245354642e-08 18.830265524378426 0 0 0
86 1 3.8342861933570678 2.213726419220765 18.830265524303428 0 0 0
74 1 5.112381724693009 1.475817648187084 16.75719170682516 0 0 0
75 1 7.66857272469301 1.4758176486390717 16.757191706707022 0 0 0
76 1 3.834286391539053 3.6895439816175126 16.757191706744614 0 0 0
77 1 6.390477391829743 3.6895439819069655 16.75719170680574 0 0 0
79 1 5.112382057703693 5.903270314835064 16.757191706647212 0 0 0
80 1 7.668573057703692 5.903270315122824 16.75719170663885 0 0 0
84 1 5.112381527295837 8.619056988777161e-08 18.830265524438037 0 0 0
87 1 6.390477194163571 2.21372641975035 18.83026552431731 0 0 0
89 1 5.112381860900122 4.427452753106592 18.830265524379133 0 0 0
90 1 7.66857286090012 4.427452753765232 18.830265524532486 0 0 0
78 1 8.946668391539053 3.6895439821964215 16.757191706866866 0 0 0
81 1 10.224764057835042 5.903270314978947 16.75719170664303 0 0 0
85 1 8.946668193357068 2.213726420279938 18.830265524331196 -1 0 0
88 1 10.224763860784682 4.427452753435915 18.83026552445581 -1 0 0
91 1 2.5561907369629244 1.4758176477651237 20.90335210450947 0 0 0
92 1 5.112381737417269 1.4758176476053972 20.903352104568555 0 0 0
93 1 7.668572737417271 1.4758176479248548 20.903352104450388 0 0 0
94 1 3.834286404597407 3.6895439808597903 20.903352104593935 0 0 0
95 1 6.390477404763017 3.689543980964837 20.9033521044699 0 0 0
97 1 5.112382070466811 5.903270314021065 20.90335210443703 0 0 0
98 1 7.668573070466812 5.903270314349118 20.903352104453155 0 0 0
96 1 8.946668404597407 3.689543981069886 20.903352104345867 0 0 0
99 1 10.224764070645604 5.903270314185096 20.90335210444509 0 0 0
100 1 1.2780952736588458 0.7379088745817884 22.979865315187464 0 0 0
101 1 3.8342862736588477 0.7379088743525644 22.979865315540376 0 0 0
103 1 2.5561909403980354 2.9516352078780623 22.979865315667432 0 0 0
109 1 7.668572805872519 1.008062488616143e-07 25.05634566268869 -1 0 0
110 1 2.5561908054874074 1.0119717323970729e-07 25.056345662648514 0 0 0
113 1 3.8342864717695706 2.2137264343614205 25.056345662784256 0 0 0
102 1 6.390477274660906 0.7379088744671797 22.979865315363917 0 0 0
104 1 5.112381940955895 2.9516352076732777 22.979865315865595 0 0 0
105 1 7.668572940955894 2.951635208082848 22.979865315469265 0 0 0
106 1 3.8342866074509727 5.165361541506288 22.979865315605874 0 0 0
107 1 6.390477607280955 5.165361541650815 22.97986531564646 0 0 0
111 1 5.112381805872519 1.0158809958061803e-07 25.056345662608337 0 0 0
114 1 6.390477472656244 2.2137264342267797 25.056345662691506 0 0 0
116 1 5.112382139616416 4.427452767651308 25.056345662737506 0 0 0
117 1 7.668573139616414 4.427452768045331 25.056345662528273 0 0 0
108 1 8.946668607450974 5.165361541795342 22.979865315687054 0 0 0
112 1 8.94666847176957 2.21372643409214 25.056345662598755 -1 0 0
115 1 10.224764139462405 4.427452767848321 25.056345662632893 -1 0 0
118 1 2.556191002983313 1.475817661944277 27.13281897059242 0 0 0
127 1 1.278095535172234 0.7379088886659358 29.20930709490974 0 0 0
128 1 3.834286535172233 0.7379088888908097 29.20930709444623 0 0 0
130 1 2.5561912019354867 2.9516352219586093 29.20930709448228 0 0 0
119 1 5.112382003452015 1.475817662013924 27.132818970511376 0 0 0
120 1 7.668573003452017 1.4758176618746313 27.132818970673473 0 0 0
121 1 3.834286670682957 3.6895439954874263 27.132818970438027 0 0 0
122 1 6.390477671095767 3.6895439954306957 27.13281897040843 0 0 0
124 1 5.112382336703099 5.903270328672853 27.132818970641747 0 0 0
125 1 7.668573336703098 5.903270328691954 27.13281897042517 0 0 0
129 1 6.390477536116958 0.737908888778375 29.209307094677985 0 0 0
131 1 5.11238220223952 2.9516352216334516 29.209307094432667 0 0 0
132 1 7.668573202239525 2.951635222283768 29.209307094531887 0 0 0
133 1 3.8342868689382628 5.165361555347111 29.20930709456349 0 0 0
134 1 6.390477868834855 5.16536155554144 29.209307094410658 0 0 0
123 1 8.946668670682959 3.689543995373971 27.132818970378835 0 0 0
126 1 10.22476433675971 5.9032703286824075 27.132818970533457 0 0 0
135 1 8.946668868938264 5.165361555735773 29.20930709425782 0 0 0
136 1 7.267169825752723e-08 1.1542621311009447e-07 31.28582299834407 0 0 0
137 1 2.556191071989826 1.1578157611241842e-07 31.285822998153897 0 0 0
140 1 3.8342867383027555 2.213726448681509 31.285822998288936 0 0 0
145 1 2.5561912838449166 1.4758176775481382 33.35891131762444 0 0 0
138 1 5.112382072671698 1.1613693917074148e-07 31.285822997963724 0 0 0
141 1 6.390477739549061 2.2137264486845485 31.285822998193936 0 0 0
143 1 5.1123824061138645 4.427452782313358 31.285822997979732 0 0 0
144 1 7.668573406113866 4.427452782957861 31.285822998225132 0 0 0
146 1 5.112382284535916 1.475817678039047 33.35891131755789 0 0 0
147 1 7.668573284535913 1.475817677057228 33.35891131769098 0 0 0
148 1 3.834286951389654 3.689544010714768 33.35891131746623 0 0 0
149 1 6.390477951692931 3.6895440106852386 33.35891131750616 0 0 0
151 1 5.112382617486597 5.903270343299603 33.3589113176185 0 0 0
152 1 7.6685736174865955 5.903270344546909 33.35891131757717 0 0 0
139 1 1.2780957383027545 2.2137264486875883 31.28582299809894 0 0 0
142 1 2.5561914057541397 4.4274527826356085 31.285822998102432 0 0 0
150 1 8.94666895138965 3.6895440106557116 33.35891131754608 0 0 0
153 1 10.2247646174235 5.903270343923256 33.35891131759784 0 0 0
154 1 9.23505835754759e-08 1.1495682707961035e-07 35.43199781504867 0 0 0
155 1 2.556191091592399 1.1546734237310791e-07 35.43199781531128 0 0 0
158 1 3.8342867581070865 2.2137264484246355 35.43199781531365 0 0 0
163 1 1.2780955722201386 0.7379088876470379 37.50850206906308 0 0 0
164 1 3.8342865722201376 0.7379088882776168 37.50850206935573 0 0 0
166 1 2.5561912384735987 2.951635220934814 37.50850206933281 0 0 0
156 1 5.112382092350584 1.1597785675934863e-07 35.43199781557389 0 0 0
159 1 6.390477759310668 2.213726448388026 35.431997815358535 0 0 0
161 1 5.112382425874563 4.427452781785097 35.43199781556644 0 0 0
162 1 7.668573425874564 4.42745278255695 35.43199781543931 0 0 0
165 1 6.390477573516657 0.7379088879623296 37.508502069209406 0 0 0
167 1 5.112382239139535 2.9516352206888845 37.508502069251314 0 0 0
168 1 7.668573239139539 2.951635221180747 37.50850206941432 0 0 0
169 1 3.834286906178254 5.1653615547445035 37.50850206936866 0 0 0
170 1 6.390477905992787 5.1653615549452105 37.50850206952181 0 0 0
157 1 1.2780957581070855 2.213726448351417 35.43199781540344 0 0 0
160 1 2.556191425673965 4.427452782171025 35.431997815502875 0 0 0
171 1 8.946668906178255 5.165361555145921 37.508502069674975 0 0 0
172 1 2.556191049306036 1.4758176580143405 39.584980510450954 0 0 0
173 1 5.1123820498344745 1.475817658260427 39.58498051050475 0 0 0
174 1 7.668573049834477 1.4758176577682527 39.584980510397145 0 0 0
175 1 3.834286716519129 3.6895439912706327 39.5849805104199 0 0 0
176 1 6.390477716943577 3.6895439911970924 39.58498051047005 0 0 0
178 1 5.112382382899401 5.903270324236556 39.584980510456205 0 0 0
179 1 7.6685733828994 5.903270324965254 39.58498051062069 0 0 0
177 1 8.946668716519131 3.6895439911235575 39.58498051052018 0 0 0
180 1 10.224764382841048 5.903270324600908 39.58498051053844 0 0 0
181 1 7.668572833461517 8.614800665309952e-08 41.66143373293151 -1 0 0
182 1 2.5561908329810565 8.676075302015945e-08 41.66143373304232 0 0 0
185 1 3.83428649900837 2.2137264200820748 41.661433732881655 0 0 0
190 1 1.2780952056653585 0.7379088343985508 43.737890963985286 0 0 0
191 1 3.834286205665358 0.7379088350348464 43.737890963904 0 0 0
193 1 2.556190872006626 2.951635167715201 43.73789096353823 0 0 0
183 1 5.112381833461515 8.737349881675796e-08 41.66143373315314 0 0 0
186 1 6.3904775003194025 2.2137264197344693 41.66143373294891 0 0 0
188 1 5.112382167727615 4.4274527535783035 41.661433733088884 0 0 0
189 1 7.6685731677276125 4.427452753950269 41.66143373327359 0 0 0
192 1 6.3904772065054924 0.7379088347166998 43.737890963944636 0 0 0
194 1 5.11238187280412 2.9516351676699943 43.73789096324981 0 0 0
195 1 7.668572872804117 2.9516351677604087 43.73789096382663 0 0 0
196 1 3.8342865399999617 5.16536150112355 43.73789096376826 0 0 0
197 1 6.3904775398470015 5.165361501563137 43.737890963880226 0 0 0
184 1 8.946668499008366 2.213726419386867 41.661433733016146 -1 0 0
187 1 10.22476416680706 4.427452753764289 41.661433733181234 -1 0 0
198 1 8.946668539999962 5.165361502002725 43.737890963992164 0 0 0
199 1 2.556190377188372 1.4758175435905863 45.814328949276046 0 0 0
208 1 11.502858400243587 6.641178830356031 47.890757306019516 -1 -1 0
209 1 6.390476399979661 6.641178830496429 47.89075730601255 0 -1 0
212 1 3.8342850662510912 2.213726163620219 47.89075730572102 0 0 0
200 1 5.112381377718297 1.4758175437478498 45.81432894927996 0 0 0
201 1 7.6685723777182995 1.4758175434333252 45.81432894927213 0 0 0
202 1 3.8342860451080703 3.6895438769833846 45.81432894922482 0 0 0
203 1 6.390477045663266 3.68954387700889 45.81432894933585 0 0 0
205 1 5.112381711187208 5.903270209969248 45.814328949266304 0 0 0
206 1 7.668572711187203 5.903270210330955 45.81432894924313 0 0 0
210 1 8.94666740024358 6.64117883063682 47.89075730600557 0 -1 0
213 1 6.390476067059286 2.2137261637478636 47.89075730590234 0 0 0
215 1 5.112380734199519 4.42745249748818 47.890757305719426 0 0 0
216 1 7.668571734199512 4.427452497870559 47.89075730588046 0 0 0
204 1 8.946668045108067 3.6895438770344 45.81432894944687 0 0 0
207 1 10.224763711210295 5.903270210150105 45.814328949254715 0 0 0
211 1 8.94666706625109 2.2137261638755237 47.89075730608365 -1 0 0
214 1 10.224762733735481 4.427452497679373 47.890757305799944 -1 0 0
217 1 1.2780919533022441 0.7379082447252348 49.96719515174605 0 0 0
218 1 3.8342829533022558 0.7379082443769971 49.96719515178061 0 0 0
220 1 2.556187620294809 2.9516345777544126 49.96719515176657 0 0 0
226 1 2.55618285207209 1.4758161741050155 52.04262442452772 0 0 0
219 1 6.390473953916257 0.7379082445511079 49.96719515176333 0 0 0
221 1 5.112378620519519 2.9516345777943003 49.96719515180228 0 0 0
222 1 7.668569620519513 2.951634577714504 49.967195151730884 0 0 0
223 1 3.834283287266217 5.16536091144582 49.967195151754346 0 0 0
224 1 6.390474287361457 5.165360911442555 49.96719515168778 0 0 0
227 1 5.112373852431571 1.4758161742145819 52.04262442459206 0 0 0
228 1 7.668564852431569 1.4758161739954399 52.042624424463426 0 0 0
229 1 3.8342785194036866 3.6895425075681043 52.04262442474888 0 0 0
230 1 6.390469519838259 3.6895425074570793 52.04262442482636 0 0 0
232 1 5.112374185853545 5.903268840439936 52.04262442431093 0 0 0
233 1 7.6685651858535575 5.903268840913555 52.04262442465159 0 0 0
225 1 8.946665287266207 5.165360911439285 49.96719515162118 0 0 0
231 1 8.946660519403675 3.6895425073460584 52.04262442490384 0 0 0
234 1 10.224756185388658 5.903268840676748 52.042624424481254 0 0 0
235 1 11.502841245861829 6.641175709374676 54.11087487483293 -1 -1 0
236 1 6.390459245474379 6.641175709623377 54.11087487513131 0 -1 0
239 1 3.834267911766836 2.21372304282203 54.1108748750134 0 0 0
237 1 8.946650245861825 6.641175709872068 54.11087487542967 0 -1 0
240 1 6.390458912995737 2.2137230428183376 54.11087487518479 0 0 0
242 1 5.112363578911408 4.427449376266603 54.110874875548504 0 0 0
243 1 7.668554578911417 4.427449377326994 54.11087487556302 0 0 0
238 1 8.946649911766837 2.213723042814668 54.110874875356195 -1 0 0
241 1 10.224745578639856 4.427449376796809 54.11087487555575 -1 0 0

Velocities

1 0 0 0
2 0 0 0
5 0 0 0
10 0 0 0
11 0 0 0
13 0 0 0
3 0 0 0
6 0 0 0
8 0 0 0
9 0 0 0
12 0 0 0
14 0 0 0
15 0 0 0
16 0 0 0
17 0 0 0
4 0 0 0
7 0 0 0
18 0 0 0
19 0 0 0
28 0 0 0
29 0 0 0
32 0 0 0
20 0 0 0
21 0 0 0
22 0 0 0
23 0 0 0
25 0 0 0
26 0 0 0
30 0 0 0
33 0 0 0
35 0 0 0
36 0 0 0
24 0 0 0
27 0 0 0
31 0 0 0
34 0 0 0
37 0 0 0
38 0 0 0
40 0 0 0
46 0 0 0
39 0 0 0
41 0 0 0
42 0 0 0
43 0 0 0
44 0 0 0
47 0 0 0
48 0 0 0
49 0 0 0
50 0 0 0
52 0 0 0
53 0 0 0
45 0 0 0
51 0 0 0
54 0 0 0
55 0 0 0
56 0 0 0
59 0 0 0
64 0 0 0
65 0 0 0
67 0 0 0
57 0 0 0
60 0 0 0
62 0 0 0
63 0 0 0
66 0 0 0
68 0 0 0
69 0 0 0
70 0 0 0
71 0 0 0
58 0 0 0
61 0 0 0
72 0 0 0
73 0 0 0
82 0 0 0
83 0 0 0
86 0 0 0
74 0 0 0
75 0 0 0
76 0 0 0
77 0 0 0
79 0 0 0
80 0 0 0
84 0 0 0
87 0 0 0
89 0 0 0
90 0 0 0
78 0 0 0
81 0 0 0
85 0 0 0
88 0 0 0
91 0 0 0
92 0 0 0
93 0 0 0
94 0 0 0
95 0 0 0
97 0 0 0
98 0 0 0
96 0 0 0
99 0 0 0
100 0 0 0
101 0 0 0
103 0 0 0
109 0 0 0
110 0 0 0
113 0 0 0
102 0 0 0
104 0 0 0
105 0 0 0
106 0 0 0
107 0 0 0
111 0 0 0
114 0 0 0
116 0 0 0
117 0 0 0
108 0 0 0
112 0 0 0
115 0 0 0
118 0 0 0
127 0 0 0
128 0 0 0
130 0 0 0
119 0 0 0
120 0 0 0
121 0 0 0
122 0 0 0
124 0 0 0
125 0 0 0
129 0 0 0
131 0 0 0
132 0 0 0
133 0 0 0
134 0 0 0
123 0 0 0
126 0 0 0
135 0 0 0
136 0 0 0
137 0 0 0
140 0 0 0
145 0 0 0
138 0 0 0
141 0 0 0
143 0 0 0
144 0 0 0
146 0 0 0
147 0 0 0
148 0 0 0
149 0 0 0
151 0 0 0
152 0 0 0
139 0 0 0
142 0 0 0
150 0 0 0
153 0 0 0
154 0 0 0
155 0 0 0
158 0 0 0
163 0 0 0
164 0 0 0
166 0 0 0
156 0 0 0
159 0 0 0
161 0 0 0
162 0 0 0
165 0 0 0
167 0 0 0
168 0 0 0
169 0 0 0
170 0 0 0
157 0 0 0
160 0 0 0
171 0 0 0
172 0 0 0
173 0 0 0
174 0 0 0
175 0 0 0
176 0 0 0
178 0 0 0
179 0 0 0
177 0 0 0
180 0 0 0
181 0 0 0
182 0 0 0
185 0 0 0
190 0 0 0
191 0 0 0
193 0 0 0
183 0 0 0
186 0 0 0
188 0 0 0
189 0 0 0
192 0 0 0
194 0 0 0
195 0 0 0
196 0 0 0
197 0 0 0
184 0 0 0
187 0 0 0
198 0 0 0
199 0 0 0
208 0 0 0
209 0 0 0
212 0 0 0
200 0 0 0
201 0 0 0
202 0 0 0
203 0 0 0
205 0 0 0
206 0 0 0
210 0 0 0
213 0 0 0
215 0 0 0
216 0 0 0
204 0 0 0
207 0 0 0
211 0 0 0
214 0 0 0
217 0 0 0
218 0 0 0
220 0 0 0
226 0 0 0
219 0 0 0
221 0 0 0
222 0 0 0
223 0 0 0
224 0 0 0
227 0 0 0
228 0 0 0
229 0 0 0
230 0 0 0
232 0 0 0
233 0 0 0
225 0 0 0
231 0 0 0
234 0 0 0
235 0 0 0
236 0 0 0
239 0 0 0
237 0 0 0
240 0 0 0
242 0 0 0
243 0 0 0
238 0 0 0
241 0 0 0
