LAMMPS data file via write_data, version 22 Jul 2025, timestep = 3, units = metal

54 atoms
3 atom types

0 7.668573 xlo xhi
0 6.641179 ylo yhi
0 12.522727 zlo zhi
3.834287 0 0 xy xz yz

Masses

1 63.55
2 63.55
3 63.55

Atoms # atomic

1 1 7.668572837031465 4.3251501938352144e-08 7.186148164437807e-08 -1 0 0
2 1 2.556190852945564 7.986436908627714e-08 7.186147730525463e-08 0 0 0
5 1 3.8342864997133397 2.213726462983636 7.186161247382302e-08 0 0 0
10 1 1.2780953878003727 0.7379089259466575 2.085184263661155 0 0 0
11 1 3.8342863878003937 0.7379089206707944 2.0851842331430817 0 0 0
13 1 2.5561910124006895 2.9516352280717295 2.0851841987239492 0 0 0
19 1 7.668572777421934 1.7079832294969835e-08 4.173239629786776 -1 0 0
20 1 2.5561907878723744 4.26733332731834e-08 4.17323965497918 0 0 0
23 1 3.8342864725135994 2.2137264324876234 4.173239672797785 0 0 0
3 1 5.112381837031288 1.1647787613271125e-07 7.186147296211709e-08 0 0 0
6 1 6.390477521905947 2.2137264520649285 7.186157444273964e-08 0 0 0
8 1 5.112382266886524 4.4274526969957115 7.18615487302849e-08 0 0 0
9 1 7.66857326688664 4.427452832057817 7.186150583228795e-08 0 0 0
12 1 6.3904774235962485 0.7379089233086029 2.0851842484020704 0 0 0
14 1 5.112381982602298 2.951635195599851 2.0851841996650213 0 0 0
15 1 7.668572982602486 2.951635260542842 2.0851841977828767 0 0 0
16 1 3.8342866817665335 5.1653614888390305 2.0851842167581793 0 0 0
17 1 6.3904776299354165 5.1653615466664835 2.085184203805133 0 0 0
21 1 5.112381777421813 6.826734203629787e-08 4.173239680171272 0 0 0
24 1 6.390477459976226 2.2137264313713074 4.173239673105658 0 0 0
26 1 5.11238224096989 4.427452698382164 4.173239703197341 0 0 0
27 1 7.6685732409699945 4.427452785012822 4.173239715444226 0 0 0
4 1 8.94666849971328 2.213726441146333 7.186153643192653e-08 -1 0 0
7 1 10.22476422029583 4.427452764527074 7.186152705276376e-08 -1 0 0
18 1 8.946668681766438 5.165361604494299 2.085184190852035 0 0 0
22 1 8.946668472513508 2.213726430255142 4.173239673413497 -1 0 0
25 1 10.224764201137404 4.427452741697757 4.173239709320801 -1 0 0
28 1 2.556190983633315 1.4758176341849958 6.261363601081752 0 0 0
29 1 5.112381949809732 1.4758176480881957 6.26136360108185 0 0 0
30 1 7.668572949809799 1.4758176202821123 6.261363601081652 0 0 0
31 1 3.834286632088433 3.689544000318341 6.261363601081848 0 0 0
32 1 6.390477702452863 3.6895439885278543 6.261363601081831 0 0 0
34 1 5.112382408662435 5.90327018690764 6.261363601081669 0 0 0
35 1 7.668573408662455 5.90327031959643 6.261363601081497 0 0 0
33 1 8.946668632088496 3.6895439767374585 6.261363601081812 0 0 0
36 1 10.224764328247243 5.903270253252156 6.261363601081583 0 0 0
37 1 7.66857277742185 1.7080005797597245e-08 8.349487496184814 -1 0 0
38 1 2.556190787872359 4.2673359090118125e-08 8.34948747099254 0 0 0
41 1 3.834286472513539 2.213726432487656 8.3494874531747 0 0 0
46 1 1.27809538780027 0.7379089259465368 10.437542937423213 0 0 0
47 1 3.834286387800291 0.737908920670684 10.43754296794138 0 0 0
49 1 2.5561910124006446 2.9516352280716145 10.437543002360963 0 0 0
39 1 5.112381777421727 6.82672200716521e-08 8.349487445800582 0 0 0
42 1 6.390477459976478 2.213726431371259 8.349487452866601 0 0 0
44 1 5.112382240970025 4.427452698382362 8.349487422775058 0 0 0
45 1 7.668573240970129 4.4274527850130685 8.349487410528049 0 0 0
48 1 6.390477423596307 0.7379089233084875 10.437542952682344 0 0 0
50 1 5.112381982602254 2.9516351955997684 10.437543001419995 0 0 0
51 1 7.668572982602442 2.9516352605426954 10.437543003301933 0 0 0
52 1 3.8342866817665318 5.165361488839209 10.437542984326393 0 0 0
53 1 6.390477629935403 5.165361546666625 10.437542997279483 0 0 0
40 1 8.946668472513448 2.213726430255013 8.349487452558536 -1 0 0
43 1 10.22476420113756 4.427452741697978 8.349487416651534 -1 0 0
54 1 8.946668681766438 5.165361604494403 10.437543010232623 0 0 0

Velocities

1 0 0 0
2 0 0 0
5 0 0 0
10 0 0 0
11 0 0 0
13 0 0 0
19 0 0 0
20 0 0 0
23 0 0 0
3 0 0 0
6 0 0 0
8 0 0 0
9 0 0 0
12 0 0 0
14 0 0 0
15 0 0 0
16 0 0 0
17 0 0 0
21 0 0 0
24 0 0 0
26 0 0 0
27 0 0 0
4 0 0 0
7 0 0 0
18 0 0 0
22 0 0 0
25 0 0 0
28 0 0 0
29 0 0 0
30 0 0 0
31 0 0 0
32 0 0 0
34 0 0 0
35 0 0 0
33 0 0 0
36 0 0 0
37 0 0 0
38 0 0 0
41 0 0 0
46 0 0 0
47 0 0 0
49 0 0 0
39 0 0 0
42 0 0 0
44 0 0 0
45 0 0 0
48 0 0 0
50 0 0 0
51 0 0 0
52 0 0 0
53 0 0 0
40 0 0 0
43 0 0 0
54 0 0 0
