LAMMPS data file via write_data, version 22 Jul 2025, timestep = 17, units = metal

306 atoms
3 atom types

0 7.668573 xlo xhi
0 6.641179 ylo yhi
0 70.962122 zlo zhi
3.834287 0 0 xy xz yz

Masses

1 63.55
2 63.55
3 63.55

Atoms # atomic

1 1 7.668572849380659 1.1107047949556089e-07 0.00032929137449597655 -1 0 0
2 1 2.556190847678324 1.1768709505428101e-07 0.00032929746033616116 0 0 0
5 1 3.8342865225350398 2.2137264487735577 0.0003293045758055847 0 0 0
10 1 1.278095407605757 0.7379088808653225 2.0877793355790515 0 0 0
11 1 3.8342864076056613 0.7379088849360798 2.087779323978581 0 0 0
13 1 2.5561910755769826 2.951635240164628 2.087779309310047 0 0 0
3 1 5.112381849380541 1.2430380351602512e-07 0.00032930354610132684 0 0 0
6 1 6.390477512250796 2.213726450149886 0.000329301160029986 0 0 0
8 1 5.11238218157184 4.4274527591431685 0.0003293121134466514 0 0 0
9 1 7.668573181571788 4.427452766957897 0.00032932196682811294 0 0 0
12 1 6.390477395762631 0.7379088829006858 2.087779329778858 0 0 0
14 1 5.112382075012308 2.9516352332145774 2.0877793037700694 0 0 0
15 1 7.668573075012269 2.9516352471148566 2.0877793148501356 0 0 0
16 1 3.8342867389096673 5.165361540997124 2.0877793155447786 0 0 0
17 1 6.390477751467452 5.165361545535506 2.087779317582523 0 0 0
4 1 8.946668522535198 2.213726451526291 0.0003292977443240245 -1 0 0
7 1 10.224764194487829 4.427452763050438 0.0003293170400424502 -1 0 0
18 1 8.94666873890952 5.165361550074008 2.087779319620415 0 0 0
19 1 2.5561909485930667 1.4758176539294043 4.175229441532855 0 0 0
28 1 7.668572840317981 1.1028090872356214e-07 6.262678389238449 -1 0 0
29 1 2.556190839626275 1.1668681151068765e-07 6.262678391217812 0 0 0
32 1 3.834286514329139 2.2137264439386626 6.26267837885348 0 0 0
20 1 5.112381964911094 1.4758176545974069 4.175229445029187 0 0 0
21 1 7.668572964911098 1.4758176532613516 4.175229438036518 0 0 0
22 1 3.834286626322787 3.6895439952736435 4.175229446666165 0 0 0
23 1 6.390477630026883 3.6895439980026294 4.175229444524628 0 0 0
25 1 5.11238229551428 5.903270344653382 4.175229432869084 0 0 0
26 1 7.668573295514335 5.903270346662868 4.175229433705313 0 0 0
30 1 5.112381840317852 1.2309279365454875e-07 6.2626783931971275 0 0 0
33 1 6.390477501210196 2.2137264462004276 6.262678380019728 0 0 0
35 1 5.112382174431263 4.427452755667108 6.262678386865113 0 0 0
36 1 7.668573174431214 4.427452763966455 6.262678395708989 0 0 0
24 1 8.946668626322822 3.689544000731703 4.175229442383207 0 0 0
27 1 10.224764298486251 5.903270345658122 4.175229433287172 0 0 0
31 1 8.946668514329293 2.2137264484622365 6.262678381185959 -1 0 0
34 1 10.224764182863577 4.427452759816694 6.2626783912869675 -1 0 0
37 1 1.2780953815431793 0.7379088671860083 8.350128266329296 0 0 0
38 1 3.8342863815430883 0.7379088712360081 8.350128270982433 0 0 0
40 1 2.556191046594242 2.9516352399991685 8.35012827679692 0 0 0
46 1 2.556190891961102 1.4758176524140523 10.437578426164977 0 0 0
39 1 6.390477366842805 0.7379088692110094 8.350128268655881 0 0 0
41 1 5.112382048190221 2.9516352307975424 8.35012827747807 0 0 0
42 1 7.668573048190174 2.951635249200905 8.350128276115798 0 0 0
43 1 3.8342867096665527 5.165361539446143 8.35012827461063 0 0 0
44 1 6.3904777272485696 5.165361542701472 8.350128277384751 0 0 0
47 1 5.112381901421376 1.475817654762927 10.437578420711478 0 0 0
48 1 7.668572901421422 1.4758176500651112 10.437578431618519 0 0 0
49 1 3.8342865668875588 3.6895439846395677 10.437578398778395 0 0 0
50 1 6.390477570931337 3.6895439896321256 10.437578400849567 0 0 0
52 1 5.112382233479442 5.90327033907239 10.437578420229933 0 0 0
53 1 7.668573233479474 5.903270336801191 10.437578409222692 0 0 0
45 1 8.946668709666445 5.165361545956916 8.350128280159003 0 0 0
51 1 8.946668566887615 3.6895439946247226 10.43757840292083 0 0 0
54 1 10.224764238238132 5.903270337936788 10.437578414726307 0 0 0
55 1 7.668572742661584 1.0838846067032961e-07 12.525028431694322 -1 0 0
56 1 2.556190730814551 1.0992213944381903e-07 12.525028437694363 0 0 0
59 1 3.834286408553638 2.2137264317710765 12.525028446941402 0 0 0
64 1 1.2780952379860486 0.7379088728371563 14.612489190260971 0 0 0
65 1 3.8342862379859444 0.7379088810083649 14.612489187582113 0 0 0
67 1 2.5561909042983944 2.9516352205242637 14.612489179000733 0 0 0
57 1 5.11238174266153 1.1145590509301769e-07 12.52502844369434 0 0 0
60 1 6.390477401512854 2.2137264330630066 12.525028443690125 0 0 0
62 1 5.112382077138432 4.427452769543603 12.52502845902034 0 0 0
63 1 7.668573077138419 4.427452765841283 12.525028463298867 0 0 0
66 1 6.390477228624203 0.7379088769227895 14.612489188921543 0 0 0
68 1 5.112381903955862 2.9516352134425854 14.612489172523503 0 0 0
69 1 7.668572903955835 2.951635227606023 14.612489185477955 0 0 0
70 1 3.8342865688856542 5.165361532604537 14.61248918178549 0 0 0
71 1 6.390477577814085 5.16536153040374 14.612489185015088 0 0 0
58 1 8.946668408553746 2.2137264343550345 12.5250284404388 -1 0 0
61 1 10.224764077720309 4.4274527676924 12.525028461159536 -1 0 0
72 1 8.946668568885535 5.165361528202971 14.612489188244746 0 0 0
73 1 2.5561907107344664 1.4758176351760044 16.69998929372249 0 0 0
82 1 7.668572516001726 1.020121120166571e-07 18.784583240429086 -1 0 0
83 1 2.5561905108636847 1.0080635087822929e-07 18.784583240630166 0 0 0
86 1 3.8342861868818066 2.2137264206038463 18.784583240766285 0 0 0
74 1 5.11238171939503 1.47581763165466 16.6999892929217 0 0 0
75 1 7.668572719395062 1.4758176386973116 16.699989294523267 0 0 0
76 1 3.834286380623232 3.6895439876916636 16.699989291343826 0 0 0
77 1 6.390477398122803 3.6895439930151315 16.699989289690368 0 0 0
79 1 5.112382051781315 5.903270321786573 16.69998929176049 0 0 0
80 1 7.668573051781305 5.903270311059562 16.699989291398452 0 0 0
84 1 5.112381516001643 9.960066954262184e-08 18.784583240831235 0 0 0
87 1 6.390477180606232 2.2137264226353524 18.784583240586645 0 0 0
89 1 5.1123818541789525 4.427452751306445 18.784583241269225 0 0 0
90 1 7.668572854178862 4.427452754523537 18.7845832413252 0 0 0
78 1 8.946668380623263 3.689543998338571 16.6999892880369 0 0 0
81 1 10.22476404495924 5.903270316423115 16.699989291579463 0 0 0
85 1 8.94666818688198 2.213726424666876 18.784583240407017 -1 0 0
88 1 10.224763858813693 4.427452752914958 18.784583241297216 -1 0 0
91 1 2.5561907105161055 1.475817634573039 20.86917702182249 0 0 0
100 1 1.2780952383191182 0.7379088729086308 22.95667714372015 0 0 0
101 1 3.834286238319019 0.7379088812481239 22.956677146907815 0 0 0
103 1 2.5561909047349123 2.9516352215970536 22.956677153740333 0 0 0
92 1 5.112381719562011 1.475817630985597 20.86917702228572 0 0 0
93 1 7.668572719562042 1.4758176381604495 20.869177021359288 0 0 0
94 1 3.8342863805350245 3.6895439877952687 20.869177022762514 0 0 0
95 1 6.390477398414438 3.689543993031085 20.869177024228872 0 0 0
97 1 5.112382051801115 5.903270322515808 20.869177022220665 0 0 0
98 1 7.6685730518011 5.903270311499655 20.86917702150107 0 0 0
102 1 6.390477228153365 0.7379088770784038 22.956677145313975 0 0 0
104 1 5.112381903833265 2.951635214322157 22.956677159606585 0 0 0
105 1 7.668572903833238 2.9516352288720267 22.956677147874068 0 0 0
106 1 3.83428656889531 5.165361531116872 22.9566771537024 0 0 0
107 1 6.3904775779834395 5.16536152917142 22.95667715138875 0 0 0
96 1 8.946668380535051 3.6895439982668647 20.86917702569522 0 0 0
99 1 10.224764045033911 5.903270317007782 20.869177021860875 0 0 0
108 1 8.946668568895195 5.165361527225996 22.95667714907504 0 0 0
109 1 7.668572743130319 1.0964829464615355e-07 25.044138026804625 -1 0 0
110 1 2.556190730122861 1.1120836323258369e-07 25.044138020894202 0 0 0
113 1 3.8342864084924404 2.213726431208308 25.044138017132614 0 0 0
118 1 2.5561908926112697 1.475817650905615 27.131588008943936 0 0 0
111 1 5.11238174313026 1.1276851467984681e-07 25.04413801498385 0 0 0
114 1 6.390477401878601 2.2137264321741505 25.044138019171953 0 0 0
116 1 5.112382077037459 4.427452769499232 25.04413800417196 0 0 0
117 1 7.668573077037443 4.42745276517976 25.044137997700222 0 0 0
119 1 5.112381901210897 1.4758176527435307 27.131588012906917 0 0 0
120 1 7.668572901210947 1.4758176490676274 27.131588004980923 0 0 0
121 1 3.834286566657756 3.6895439869533955 27.131588028422907 0 0 0
122 1 6.390477571617916 3.689543992322624 27.13158802783547 0 0 0
124 1 5.112382234024993 5.903270337854387 27.131588015486745 0 0 0
125 1 7.668573234025025 5.903270335682415 27.131588026337404 0 0 0
112 1 8.946668408492554 2.2137264331400854 25.044138021211324 -1 0 0
115 1 10.22476407816669 4.42745276733945 25.04413800093615 -1 0 0
123 1 8.946668566657813 3.689543997691887 27.131588027247933 0 0 0
126 1 10.22476423736732 5.9032703367684 27.13158802091208 0 0 0
127 1 1.2780953814937546 0.7379088700522273 29.21903904901064 0 0 0
128 1 3.8342863814936816 0.7379088749815835 29.21903904830146 0 0 0
130 1 2.5561910469934106 2.9516352367942513 29.219039051195903 0 0 0
136 1 7.668572840552997 1.0817415987509508e-07 31.306489351086597 -1 0 0
137 1 2.5561908408261944 1.1430467752693917e-07 31.30648934660825 0 0 0
140 1 3.8342865147021516 2.2137264451918086 31.306489348525247 0 0 0
129 1 6.390477367338233 0.7379088725169092 29.219039048656022 0 0 0
131 1 5.112382048158228 2.9516352280021936 29.219039052863472 0 0 0
132 1 7.668573048158171 2.951635245586407 29.219039049528273 0 0 0
133 1 3.834286710357801 5.165361539407314 29.219039048482205 0 0 0
134 1 6.3904777261831756 5.16536154260987 29.219039045619002 0 0 0
138 1 5.112381840552843 1.2043527025756406e-07 31.306489342129943 0 0 0
141 1 6.390477501966934 2.2137264481693655 31.306489350363762 0 0 0
143 1 5.112382175533983 4.427452756639813 31.306489340170874 0 0 0
144 1 7.668573175533925 4.427452764872532 31.306489332882506 0 0 0
135 1 8.946668710357699 5.165361545812554 29.21903904275568 0 0 0
139 1 8.94666851470232 2.2137264511469468 31.306489352202277 -1 0 0
142 1 10.224764182165313 4.427452760756071 31.306489336526766 -1 0 0
145 1 2.556190953176193 1.4758176561578338 33.39393953219033 0 0 0
146 1 5.11238196677167 1.4758176561577734 33.39393953219036 0 0 0
147 1 7.668572966771667 1.4758176561578304 33.3939395321903 0 0 0
148 1 3.8342866289757627 3.689543997792584 33.3939395373827 0 0 0
149 1 6.390477633013541 3.689543999999974 33.3939395387323 0 0 0
151 1 5.11238229775342 5.903270341634717 33.39393954392459 0 0 0
152 1 7.668573297753488 5.903270346049664 33.39393954662361 0 0 0
150 1 8.946668628975809 3.689544002207465 33.39393954008178 0 0 0
153 1 10.224764301791161 5.903270343842186 33.39393954527414 0 0 0
154 1 1.2780954194564873 0.737908882717703 35.48138969092206 0 0 0
155 1 3.8342864194563595 0.7379088886728964 35.48138969459905 0 0 0
157 1 2.5561910866270354 2.9516352392438483 35.481389702842186 0 0 0
163 1 7.668572881355826 1.1869096768313048e-07 37.56884003250448 -1 0 0
164 1 2.556190880190869 1.274831154744834e-07 37.568840030836796 0 0 0
167 1 3.834286555584985 2.2137264549254763 37.568840034228444 0 0 0
156 1 6.390477406720974 0.737908885695296 35.481389692760516 0 0 0
158 1 5.112382086353839 2.951635233113377 35.48138970732051 0 0 0
159 1 7.668573086353774 2.951635245374494 35.481389698363756 0 0 0
160 1 3.8342867513983148 5.165361547714189 35.48138969264926 0 0 0
161 1 6.390477758029512 5.16536155183053 35.48138968900513 0 0 0
165 1 5.112381881355739 1.3627525900132098e-07 37.56884002916921 0 0 0
168 1 6.390477541429442 2.2137264573900866 37.568840033873904 0 0 0
170 1 5.112382212215913 4.427452760003107 37.56884003116017 0 0 0
171 1 7.6685732122158985 4.427452766408318 37.56884002543371 0 0 0
162 1 8.946668751398175 5.165361555946963 35.481389685360895 0 0 0
166 1 8.946668555585166 2.2137264598547675 37.568840033519315 -1 0 0
169 1 10.22476422804129 4.427452763205644 37.568840028297004 -1 0 0
172 1 2.556191021665117 1.4758176632315745 39.656291018358154 0 0 0
181 1 1.2780955183076783 0.7379088878257248 41.743741053053945 0 0 0
182 1 3.834286518307588 0.7379088897574859 41.74374105713265 0 0 0
184 1 2.556191180375217 2.951635232660513 41.743741075051496 0 0 0
173 1 5.112382030264849 1.4758176613935923 39.65629101439513 0 0 0
174 1 7.668573030264843 1.4758176650694972 39.6562910223212 0 0 0
175 1 3.8342866960741726 3.68954400876337 39.65629100600951 0 0 0
176 1 6.3904776994165235 3.689544007677328 39.65629101143486 0 0 0
178 1 5.112382360567061 5.903270343725215 39.656291030913756 0 0 0
179 1 7.6685733605671285 5.9032703544636735 39.65629102973886 0 0 0
183 1 6.390477511693751 0.7379088887915942 41.74374105509326 0 0 0
185 1 5.112382193382658 2.951635231100464 41.74374108096188 0 0 0
186 1 7.668573193382597 2.951635234220657 41.74374106914103 0 0 0
187 1 3.8342868498371976 5.165361569985491 41.743741060051484 0 0 0
188 1 6.3904778509664215 5.165361567825763 41.743741056815644 0 0 0
177 1 8.946668696074166 3.6895440065913756 39.656291016860095 0 0 0
180 1 10.224764365527253 5.903270349094456 39.656291030326315 0 0 0
189 1 8.946668849837112 5.165361565666132 41.743741053579726 0 0 0
190 1 7.668573023934987 1.1564664935177523e-07 43.83120190712205 -1 0 0
191 1 2.5561910248366115 1.2292158543619362e-07 43.83120190125577 0 0 0
194 1 3.834286697838577 2.2137264666588763 43.83120189358711 0 0 0
199 1 2.556191204186759 1.4758176829922425 45.91870204472833 0 0 0
192 1 5.112382023934916 1.3019650530397465e-07 43.83120189538953 0 0 0
195 1 6.390477687672903 2.213726470828614 43.83120189518099 0 0 0
197 1 5.112382356113464 4.427452780348352 43.831201895143046 0 0 0
198 1 7.668573356113445 4.4274527764575184 43.83120189051573 0 0 0
200 1 5.112382213232778 1.4758176865796417 45.918702044265096 0 0 0
201 1 7.668573213232799 1.475817679404793 45.918702045191544 0 0 0
202 1 3.8342868855150707 3.6895440124770067 45.91870204272014 0 0 0
203 1 6.390477878747882 3.6895440069689656 45.91870204236034 0 0 0
205 1 5.112382540803811 5.903270360191197 45.91870204330037 0 0 0
206 1 7.668573540803855 5.903270370662747 45.918702046233015 0 0 0
193 1 8.946668697838707 2.2137264749983183 43.831201896774836 -1 0 0
196 1 10.224764365201619 4.427452778402893 43.831201892829405 -1 0 0
204 1 8.946668885515058 3.689544001460872 45.91870204200052 0 0 0
207 1 10.224764558683187 5.903270365426974 45.91870204476667 0 0 0
208 1 1.2780957362845398 0.7379088971621479 48.00329581393505 0 0 0
209 1 3.8342867362844677 0.7379089012252207 48.003295813575825 0 0 0
211 1 2.5561914092917655 2.951635247085002 48.00329581308842 0 0 0
217 1 2.556191204485497 1.4758176835769583 50.087889767061995 0 0 0
210 1 6.390477730008771 0.7379088991936404 48.003295813755436 0 0 0
212 1 5.112382414429739 2.951635248290827 48.003295812887345 0 0 0
213 1 7.668573414429741 2.9516352458793333 48.00329581328947 0 0 0
214 1 3.8342870699770417 5.16536157575595 48.003295813770976 0 0 0
215 1 6.390478074611734 5.165361577364549 48.00329581379896 0 0 0
218 1 5.112382213146093 1.475817687098251 50.08788976786279 0 0 0
219 1 7.668573213146114 1.4758176800555993 50.08788976626124 0 0 0
220 1 3.8342868855742704 3.6895440123483336 50.08788976913208 0 0 0
221 1 6.390477878752153 3.6895440069848666 50.087889768951094 0 0 0
223 1 5.112382540971703 5.903270359500544 50.08788976657247 0 0 0
224 1 7.668573540971755 5.903270370147475 50.087889763265586 0 0 0
216 1 8.946669069976974 5.165361578973177 48.00329581382693 0 0 0
222 1 8.946668885574265 3.6895440016213445 50.0878897687701 0 0 0
225 1 10.22476455847125 5.903270364824011 50.08788976491905 0 0 0
226 1 7.668573024182758 1.1599549923692545e-07 52.17538986721435 -1 0 0
227 1 2.556191024525261 1.2307719383621527e-07 52.17538987369162 0 0 0
230 1 3.834286697632988 2.2137264655106788 52.17538987893749 0 0 0
235 1 1.2780955185271932 0.7379088887858588 54.26285061549697 0 0 0
236 1 3.8342865185270942 0.7379088913697903 54.26285060899443 0 0 0
238 1 2.556191181226617 2.9516352323075266 54.26285058878045 0 0 0
228 1 5.1123820241826925 1.3015888899851345e-07 52.175389880168794 0 0 0
231 1 6.390477688271243 2.213726469596276 52.17538987759803 0 0 0
233 1 5.1123823562272275 4.427452781676517 52.1753898803828 0 0 0
234 1 7.66857335622719 4.427452777274983 52.17538988684205 0 0 0
237 1 6.390477511486373 0.7379088900778048 54.26285061224574 0 0 0
239 1 5.112382193073702 2.9516352307738836 54.26285058278045 0 0 0
240 1 7.668573193073656 2.9516352338412584 54.262850594780524 0 0 0
241 1 3.834286850098216 5.165361568788125 54.262850604110675 0 0 0
242 1 6.390477850680056 5.165361566936958 54.2628506062499 0 0 0
229 1 8.946668697633104 2.2137264736818323 52.17538987625861 -1 0 0
232 1 10.224764365155643 4.427452779475713 52.17538988361241 -1 0 0
243 1 8.94666885009815 5.165361565085873 54.26285060838923 0 0 0
244 1 2.5561910211747825 1.4758176620632215 56.350300657073916 0 0 0
253 1 7.668572881589652 1.2158729365584294e-07 58.4377507727245 -1 0 0
254 1 2.5561908799935615 1.307889875577018e-07 58.437750772043394 0 0 0
257 1 3.8342865558711714 2.2137264552734957 58.43775076098784 0 0 0
245 1 5.112382030635104 1.4758176597142787 56.35030066252746 0 0 0
246 1 7.668573030635096 1.4758176644121042 56.35030065162034 0 0 0
247 1 3.8342866956834563 3.689544011503473 56.35030067645425 0 0 0
248 1 6.390477700442121 3.6895440103678285 56.35030067095062 0 0 0
250 1 5.112382360957019 5.903270342593386 56.35030064356404 0 0 0
251 1 7.668573360957087 5.903270352578561 56.35030064770648 0 0 0
255 1 5.112381881589555 1.399906946366264e-07 58.437750771362225 0 0 0
258 1 6.390477541170878 2.213726457298437 58.4377507633144 0 0 0
260 1 5.112382211723224 4.427452756745488 58.437750761128136 0 0 0
261 1 7.668573211723201 4.427452763256212 58.437750766676515 0 0 0
249 1 8.946668695683451 3.6895440092322804 56.350300665447065 0 0 0
252 1 10.224764365000787 5.903270347585984 56.35030064563524 0 0 0
256 1 8.946668555871355 2.2137264593234436 58.437750765640985 -1 0 0
259 1 10.224764229305231 4.427452760000772 58.43775076390226 -1 0 0
262 1 1.2780954199508252 0.7379088810513595 60.525200689999345 0 0 0
263 1 3.8342864199507045 0.7379088855750099 60.525200692331914 0 0 0
265 1 2.5561910863857897 2.951635240183162 60.52520069109641 0 0 0
271 1 2.5561909534576137 1.4758176543419432 62.61264959915223 0 0 0
264 1 6.39047740683176 0.7379088833131818 60.52520069116565 0 0 0
266 1 5.1123820870775 2.9516352337773277 60.52520068911712 0 0 0
267 1 7.668573087077442 2.9516352465891673 60.5252006930758 0 0 0
268 1 3.834286751195371 5.165361549649914 60.525200697941784 0 0 0
269 1 6.390477759627556 5.165361553799533 60.5252007023637 0 0 0
272 1 5.112381969775607 1.475817653673858 62.612649595655895 0 0 0
273 1 7.668572969775612 1.475817655009968 62.61264960264858 0 0 0
274 1 3.834286631321793 3.6895440009925955 62.61264958749672 0 0 0
275 1 6.390477634293731 3.6895440019972896 62.61264958791476 0 0 0
277 1 5.112382299950287 5.90327034334153 62.61264959304807 0 0 0
278 1 7.6685732999503475 5.9032703487996665 62.61264958876519 0 0 0
270 1 8.946668751195224 5.165361557949253 60.52520070678571 0 0 0
276 1 8.946668631321835 3.6895440030020716 62.61264958833291 0 0 0
279 1 10.224764303654332 5.9032703460705935 62.612649590906614 0 0 0
280 1 7.66857284919148 1.1014916704230401e-07 64.7000997513094 -1 0 0
281 1 2.556190849756147 1.1709925389993791e-07 64.70009975684943 0 0 0
284 1 3.834286523580811 2.213726452429087 64.70009977484588 0 0 0
289 1 1.2780954075057147 0.737908880936483 66.78754973797064 0 0 0
290 1 3.834286407505606 0.7379088836892673 66.78754973113922 0 0 0
292 1 2.5561910744995786 2.9516352369494108 66.78754971497516 0 0 0
282 1 5.112381849191371 1.2404941508909545e-07 64.70009976238939 0 0 0
285 1 6.390477511737943 2.2137264544644086 64.70009976904561 0 0 0
287 1 5.11238218220553 4.427452755296954 64.70009977528031 0 0 0
288 1 7.668573182205482 4.427452764373798 64.70009977935601 0 0 0
291 1 6.390477397221468 0.7379088823128613 66.78754973455496 0 0 0
293 1 5.112382076201781 2.9516352303328484 66.78754970888946 0 0 0
294 1 7.668573076201733 2.9516352435661566 66.78754972106097 0 0 0
295 1 3.834286739211913 5.16536154594279 66.78754972592854 0 0 0
296 1 6.390477752127943 5.165361549850094 66.78754973085518 0 0 0
283 1 8.946668523580989 2.2137264564997987 64.70009976324539 -1 0 0
286 1 10.224764194763413 4.427452759835278 64.70009977731807 -1 0 0
297 1 8.946668739211765 5.165361553757522 66.78754973578195 0 0 0
298 1 2.556190950615902 1.4758176531959029 68.8750005469037 0 0 0
299 1 5.112381967034638 1.4758176531958962 68.87500054690375 0 0 0
300 1 7.66857296703464 1.475817653195867 68.8750005469037 0 0 0
301 1 3.8342866289641804 3.6895439977962425 68.8750005450048 0 0 0
302 1 6.390477630699849 3.6895439999999504 68.87500054244322 0 0 0
304 1 5.112382298004773 5.903270344600373 68.8750005405443 0 0 0
305 1 7.668573298004824 5.903270349007873 68.87500053542117 0 0 0
303 1 8.946668628964222 3.689544002203753 68.87500053988174 0 0 0
306 1 10.224764299740471 5.903270346804113 68.87500053798271 0 0 0

Velocities

1 0 0 0
2 0 0 0
5 0 0 0
10 0 0 0
11 0 0 0
13 0 0 0
3 0 0 0
6 0 0 0
8 0 0 0
9 0 0 0
12 0 0 0
14 0 0 0
15 0 0 0
16 0 0 0
17 0 0 0
4 0 0 0
7 0 0 0
18 0 0 0
19 0 0 0
28 0 0 0
29 0 0 0
32 0 0 0
20 0 0 0
21 0 0 0
22 0 0 0
23 0 0 0
25 0 0 0
26 0 0 0
30 0 0 0
33 0 0 0
35 0 0 0
36 0 0 0
24 0 0 0
27 0 0 0
31 0 0 0
34 0 0 0
37 0 0 0
38 0 0 0
40 0 0 0
46 0 0 0
39 0 0 0
41 0 0 0
42 0 0 0
43 0 0 0
44 0 0 0
47 0 0 0
48 0 0 0
49 0 0 0
50 0 0 0
52 0 0 0
53 0 0 0
45 0 0 0
51 0 0 0
54 0 0 0
55 0 0 0
56 0 0 0
59 0 0 0
64 0 0 0
65 0 0 0
67 0 0 0
57 0 0 0
60 0 0 0
62 0 0 0
63 0 0 0
66 0 0 0
68 0 0 0
69 0 0 0
70 0 0 0
71 0 0 0
58 0 0 0
61 0 0 0
72 0 0 0
73 0 0 0
82 0 0 0
83 0 0 0
86 0 0 0
74 0 0 0
75 0 0 0
76 0 0 0
77 0 0 0
79 0 0 0
80 0 0 0
84 0 0 0
87 0 0 0
89 0 0 0
90 0 0 0
78 0 0 0
81 0 0 0
85 0 0 0
88 0 0 0
91 0 0 0
100 0 0 0
101 0 0 0
103 0 0 0
92 0 0 0
93 0 0 0
94 0 0 0
95 0 0 0
97 0 0 0
98 0 0 0
102 0 0 0
104 0 0 0
105 0 0 0
106 0 0 0
107 0 0 0
96 0 0 0
99 0 0 0
108 0 0 0
109 0 0 0
110 0 0 0
113 0 0 0
118 0 0 0
111 0 0 0
114 0 0 0
116 0 0 0
117 0 0 0
119 0 0 0
120 0 0 0
121 0 0 0
122 0 0 0
124 0 0 0
125 0 0 0
112 0 0 0
115 0 0 0
123 0 0 0
126 0 0 0
127 0 0 0
128 0 0 0
130 0 0 0
136 0 0 0
137 0 0 0
140 0 0 0
129 0 0 0
131 0 0 0
132 0 0 0
133 0 0 0
134 0 0 0
138 0 0 0
141 0 0 0
143 0 0 0
144 0 0 0
135 0 0 0
139 0 0 0
142 0 0 0
145 0 0 0
146 0 0 0
147 0 0 0
148 0 0 0
149 0 0 0
151 0 0 0
152 0 0 0
150 0 0 0
153 0 0 0
154 0 0 0
155 0 0 0
157 0 0 0
163 0 0 0
164 0 0 0
167 0 0 0
156 0 0 0
158 0 0 0
159 0 0 0
160 0 0 0
161 0 0 0
165 0 0 0
168 0 0 0
170 0 0 0
171 0 0 0
162 0 0 0
166 0 0 0
169 0 0 0
172 0 0 0
181 0 0 0
182 0 0 0
184 0 0 0
173 0 0 0
174 0 0 0
175 0 0 0
176 0 0 0
178 0 0 0
179 0 0 0
183 0 0 0
185 0 0 0
186 0 0 0
187 0 0 0
188 0 0 0
177 0 0 0
180 0 0 0
189 0 0 0
190 0 0 0
191 0 0 0
194 0 0 0
199 0 0 0
192 0 0 0
195 0 0 0
197 0 0 0
198 0 0 0
200 0 0 0
201 0 0 0
202 0 0 0
203 0 0 0
205 0 0 0
206 0 0 0
193 0 0 0
196 0 0 0
204 0 0 0
207 0 0 0
208 0 0 0
209 0 0 0
211 0 0 0
217 0 0 0
210 0 0 0
212 0 0 0
213 0 0 0
214 0 0 0
215 0 0 0
218 0 0 0
219 0 0 0
220 0 0 0
221 0 0 0
223 0 0 0
224 0 0 0
216 0 0 0
222 0 0 0
225 0 0 0
226 0 0 0
227 0 0 0
230 0 0 0
235 0 0 0
236 0 0 0
238 0 0 0
228 0 0 0
231 0 0 0
233 0 0 0
234 0 0 0
237 0 0 0
239 0 0 0
240 0 0 0
241 0 0 0
242 0 0 0
229 0 0 0
232 0 0 0
243 0 0 0
244 0 0 0
253 0 0 0
254 0 0 0
257 0 0 0
245 0 0 0
246 0 0 0
247 0 0 0
248 0 0 0
250 0 0 0
251 0 0 0
255 0 0 0
258 0 0 0
260 0 0 0
261 0 0 0
249 0 0 0
252 0 0 0
256 0 0 0
259 0 0 0
262 0 0 0
263 0 0 0
265 0 0 0
271 0 0 0
264 0 0 0
266 0 0 0
267 0 0 0
268 0 0 0
269 0 0 0
272 0 0 0
273 0 0 0
274 0 0 0
275 0 0 0
277 0 0 0
278 0 0 0
270 0 0 0
276 0 0 0
279 0 0 0
280 0 0 0
281 0 0 0
284 0 0 0
289 0 0 0
290 0 0 0
292 0 0 0
282 0 0 0
285 0 0 0
287 0 0 0
288 0 0 0
291 0 0 0
293 0 0 0
294 0 0 0
295 0 0 0
296 0 0 0
283 0 0 0
286 0 0 0
297 0 0 0
298 0 0 0
299 0 0 0
300 0 0 0
301 0 0 0
302 0 0 0
304 0 0 0
305 0 0 0
303 0 0 0
306 0 0 0
