LAMMPS data file via write_data, version 22 Jul 2025, timestep = 9, units = metal

162 atoms
3 atom types

0 7.668573 xlo xhi
0 6.641179 ylo yhi
0 37.568182 zlo zhi
3.834287 0 0 xy xz yz

Masses

1 63.55
2 63.55
3 63.55

Atoms # atomic

1 1 7.668572843071535 9.72835036917776e-08 0.0006156089256572022 -1 0 0
2 1 2.55619083519496 1.0960018272825145e-07 0.0006156120219428641 0 0 0
5 1 3.834286503889494 2.2137264459254022 0.0006156227282804327 0 0 0
10 1 1.2780954094766575 0.7379088933531068 2.0883529056158783 0 0 0
11 1 3.834286409476567 0.7379088874359503 2.088352900630498 0 0 0
13 1 2.5561910723533896 2.951635236498513 2.0883528888756073 0 0 0
3 1 5.112381843071513 1.2191701304910683e-07 0.0006156151182081466 0 0 0
6 1 6.390477509818783 2.2137264428755263 0.0006156181709955984 0 0 0
8 1 5.112382197090662 4.427452749693701 0.0006156237263945737 0 0 0
9 1 7.668573197090698 4.427452776479338 0.0006156349329245769 0 0 0
12 1 6.390477418239281 0.7379088903944989 2.088352903123207 0 0 0
14 1 5.112382082651687 2.9516352252504285 2.0883528858540723 0 0 0
15 1 7.66857308265165 2.951635247746428 2.0883528918971206 0 0 0
16 1 3.8342867351113887 5.165361547671836 2.0883528946834122 0 0 0
17 1 6.390477734227984 5.165361560250491 2.0883529016178595 0 0 0
4 1 8.946668503889594 2.213726439825703 0.0006156136137661231 -1 0 0
7 1 10.224764197025383 4.427452763086593 0.0006156293296536169 -1 0 0
18 1 8.94666873511136 5.165361572829235 2.088352908552296 0 0 0
19 1 2.5561909474627384 1.4758176659495101 4.1760914202704145 0 0 0
28 1 7.668572813449093 1.1784159797793393e-07 6.263841079779537 -1 0 0
29 1 2.5561908084002023 1.2430417175952797e-07 6.263841084922741 0 0 0
32 1 3.834286481985923 2.2137264606391187 6.263841097333436 0 0 0
20 1 5.112381954652357 1.4758176643498895 4.176091421173912 0 0 0
21 1 7.6685729546523485 1.4758176675491408 4.176091419366886 0 0 0
22 1 3.8342866286552275 3.6895440008078584 4.176091415088215 0 0 0
23 1 6.390477638577433 3.6895440042436776 4.1760914145636345 0 0 0
25 1 5.1123822923098095 5.903270344546064 4.176091413451091 0 0 0
26 1 7.668573292309834 5.903270348160962 4.176091414397103 0 0 0
30 1 5.1123818134490815 1.3076687344557097e-07 6.263841090065966 0 0 0
33 1 6.390477482545817 2.2137264557291747 6.26384109177672 0 0 0
35 1 5.1123821688717985 4.427452775813906 6.2638410995420335 0 0 0
36 1 7.668573168871832 4.427452787427601 6.263841111623049 0 0 0
24 1 8.946668628655235 3.6895440076795185 4.176091414039083 0 0 0
27 1 10.22476430328964 5.9032703463535245 4.176091413924116 0 0 0
31 1 8.946668481986014 2.213726450819252 6.263841086220049 -1 0 0
34 1 10.224764171371888 4.427452781620801 6.263841105582551 -1 0 0
37 1 1.27809532351795 0.7379089010729399 8.351631094741226 0 0 0
38 1 3.8342863235178806 0.7379088994994956 8.351631088055798 0 0 0
40 1 2.556190991593753 2.9516352448240273 8.351631072671719 0 0 0
46 1 2.5561907834545847 1.4758176404815437 10.436531280938812 0 0 0
39 1 6.390477324796638 0.7379089002862604 8.351631091398541 0 0 0
41 1 5.112381996783632 2.9516352383608258 8.35163106663363 0 0 0
42 1 7.668572996783629 2.951635251287182 8.351631078709792 0 0 0
43 1 3.834286646975677 5.165361551792358 8.351631081177498 0 0 0
44 1 6.3904776446830365 5.165361564043549 8.351631081969431 0 0 0
47 1 5.112381792616148 1.4758176228852433 10.436531280774588 0 0 0
48 1 7.668572792616154 1.4758176580779723 10.43653128110304 0 0 0
49 1 3.834286453411422 3.6895439780172974 10.436531280505873 0 0 0
50 1 6.390477453417651 3.6895439852295806 10.436531280405864 0 0 0
52 1 5.112382112947825 5.903270327206034 10.436531280702972 0 0 0
53 1 7.668573112947822 5.903270325518248 10.436531280218977 0 0 0
45 1 8.946668646975692 5.16536157629479 8.351631082761362 0 0 0
51 1 8.946668453411455 3.689543992441942 10.436531280305855 0 0 0
54 1 10.224764133477603 5.903270326362174 10.436531280460976 0 0 0
55 1 1.2780953241609616 0.7379089015265109 12.521430830030988 0 0 0
56 1 3.8342863241608947 0.7379088988643318 12.521430836254012 0 0 0
58 1 2.5561909915971737 2.9516352452508503 12.521430850890894 0 0 0
64 1 7.668572814959407 1.188313341735789e-07 14.60921995136464 -1 0 0
65 1 2.556190807547574 1.2444377694601918e-07 14.609219947492987 0 0 0
68 1 3.834286482466795 2.213726458904227 14.609219940868288 0 0 0
57 1 6.390477323971233 0.7379089001954642 12.521430833142468 0 0 0
59 1 5.112381997046779 2.951635238735264 12.521430856085386 0 0 0
60 1 7.668572997046775 2.951635251766391 12.521430845696411 0 0 0
61 1 3.834286646894466 5.165361550917417 12.521430843183207 0 0 0
62 1 6.390477645058818 5.165361563474219 12.521430843637892 0 0 0
66 1 5.1123818149594 1.300563460896049e-07 14.609219943621332 0 0 0
69 1 6.390477483840109 2.2137264535686962 14.609219943956463 0 0 0
71 1 5.112382169520625 4.427452775784999 14.609219937195862 0 0 0
72 1 7.668573169520662 4.427452786719356 14.609219925220922 0 0 0
63 1 8.94666864689448 5.165361576031074 12.521430844092583 0 0 0
67 1 8.946668482466883 2.2137264482331918 14.609219947044595 -1 0 0
70 1 10.224764171883223 4.427452781252225 14.609219931208386 -1 0 0
73 1 2.5561909537892444 1.4758176615619698 16.696969773669498 0 0 0
74 1 5.112381958331006 1.4758176615619385 16.696969773669505 0 0 0
75 1 7.668572958331005 1.4758176615620044 16.696969773669537 0 0 0
76 1 3.8342866338087322 3.6895439978121267 16.696969777043925 0 0 0
77 1 6.390477644001085 3.6895440000000153 16.696969776464943 0 0 0
79 1 5.112382297440233 5.903270336250212 16.696969779839296 0 0 0
80 1 7.6685732974402505 5.9032703406259435 16.69696977868133 0 0 0
78 1 8.946668633808716 3.6895440021879047 16.696969775885908 0 0 0
81 1 10.224764307632633 5.903270338438092 16.69696977926029 0 0 0
82 1 1.278095437491321 0.7379088808916473 18.784719604545973 0 0 0
83 1 3.8342864374912393 0.7379088702206927 18.78471961072216 0 0 0
85 1 2.556191103924003 2.9516352187478367 18.784719623918736 0 0 0
91 1 7.6685729306916945 9.328898457014429e-08 20.872508728604164 -1 0 0
92 1 2.556190925242112 9.980453036032254e-08 20.872508723409595 0 0 0
95 1 3.8342865955627268 2.213726437856835 20.87250870980274 0 0 0
84 1 6.3904774388644885 0.7379088755561536 18.784719607634056 0 0 0
86 1 5.112382111335922 2.951635213135247 18.784719627790448 0 0 0
87 1 7.66857311133588 2.951635224360312 18.784719620047067 0 0 0
88 1 3.834286758486222 5.165361540964031 18.784719617158004 0 0 0
89 1 6.390477760848764 5.165361546431232 18.78471961117051 0 0 0
93 1 5.112381930691713 1.0632010715754909e-07 20.872508718215045 0 0 0
96 1 6.390477595373038 2.2137264365257514 20.872508712914296 0 0 0
98 1 5.11238228212034 4.4274527421924 20.872508705206464 0 0 0
99 1 7.66857328212037 4.427452767305987 20.872508706115735 0 0 0
90 1 8.946668758486185 5.1653615518985 18.78471960518301 0 0 0
94 1 8.946668595562796 2.2137264351946455 20.872508716025784 -1 0 0
97 1 10.224764280284713 4.427452754749188 20.87250870566109 -1 0 0
100 1 2.5561911183176576 1.4758176736378676 22.9574082768873 0 0 0
109 1 7.668572930777401 9.325057497274206e-08 25.04230845743857 -1 0 0
110 1 2.5561909255875888 9.971372593468223e-08 25.042308463476672 0 0 0
113 1 3.8342865951618563 2.2137264367431784 25.0423084762484 0 0 0
101 1 5.112382127479229 1.4758176912341248 22.95740827705146 0 0 0
102 1 7.668573127479212 1.4758176560415135 22.957408276723132 0 0 0
103 1 3.834286813999128 3.6895440156141825 22.957408277184275 0 0 0
104 1 6.390477834528877 3.6895440147703673 22.957408276942264 0 0 0
106 1 5.112382482336594 5.90327035230611 22.957408276509458 0 0 0
107 1 7.668573482336658 5.903270366730713 22.957408276309383 0 0 0
111 1 5.112381930777415 1.0617690774591927e-07 25.042308469514754 0 0 0
114 1 6.390477596440625 2.213726435956475 25.042308472905656 0 0 0
116 1 5.1123822823639475 4.427452742924819 25.042308481411443 0 0 0
117 1 7.6685732823639725 4.427452767427215 25.042308482995317 0 0 0
105 1 8.94666881399909 3.689544013926466 22.95740827670025 0 0 0
108 1 10.224764482342898 5.903270359518413 22.957408276409417 0 0 0
112 1 8.946668595161928 2.2137264351697477 25.042308469562993 -1 0 0
115 1 10.224764280071328 4.42745275517601 25.042308482203385 -1 0 0
118 1 1.2780954385209156 0.7379088806057016 27.13009847311195 0 0 0
119 1 3.8342864385208304 0.7379088707858958 27.130098461998582 0 0 0
121 1 2.556191106056262 2.9516352183792716 27.13009844689538 0 0 0
127 1 2.556190956598677 1.4758176536464995 29.217848146389635 0 0 0
120 1 6.390477439080724 0.7379088756957802 27.130098467555268 0 0 0
122 1 5.112382111105184 2.9516352119165745 27.130098441752118 0 0 0
123 1 7.668573111105145 2.9516352248418607 27.13009845203859 0 0 0
124 1 3.8342867591065883 5.165361538463907 27.1300984546607 0 0 0
125 1 6.390477761606647 5.165361544270789 27.13009846070122 0 0 0
128 1 5.112381963788305 1.4758176552460747 29.217848145486048 0 0 0
129 1 7.668572963788301 1.4758176520469202 29.217848147293157 0 0 0
130 1 3.834286638643939 3.6895439939488472 29.217848145276957 0 0 0
131 1 6.390477649623719 3.689543995756331 29.217848145749954 0 0 0
133 1 5.112382302593451 5.903270330614691 29.217848140567856 0 0 0
134 1 7.6685733025934875 5.903270337486315 29.217848139518683 0 0 0
126 1 8.946668759106547 5.1653615500777335 27.130098466741735 0 0 0
132 1 8.946668638643912 3.6895439975638102 29.217848146223005 0 0 0
135 1 10.224764312515688 5.903270334050522 29.217848140043284 0 0 0
136 1 7.668572844662614 9.835750686403305e-08 31.30558664747887 -1 0 0
137 1 2.556190834364363 1.0960542382434654e-07 31.305586650500345 0 0 0
140 1 3.8342865036580367 2.2137264427080585 31.305586654498406 0 0 0
145 1 1.2780954112268463 0.7379088934496345 33.39332395087844 0 0 0
146 1 3.8342864112267523 0.7379088873499857 33.39332394176396 0 0 0
148 1 2.556191074583566 2.951635236913547 33.39332392901355 0 0 0
138 1 5.112381844662598 1.2085348538207008e-07 31.305586653521786 0 0 0
141 1 6.390477512420785 2.2137264397494136 31.305586652005665 0 0 0
143 1 5.112382197895176 4.427452750922868 31.30558665781334 0 0 0
144 1 7.668573197895213 4.4274527760801545 31.30558667168223 0 0 0
147 1 6.390477417156122 0.7379088903997776 33.39332394632122 0 0 0
149 1 5.112382082460136 2.951635224596741 33.393323925917294 0 0 0
150 1 7.668573082460103 2.951635249230194 33.39332393210975 0 0 0
151 1 3.8342867354176837 5.165361543731597 33.393323934568855 0 0 0
152 1 6.390477735352422 5.165361557124453 33.39332394017209 0 0 0
139 1 8.946668503658133 2.2137264367908287 31.305586649512968 -1 0 0
142 1 10.224764197011803 4.427452763501584 31.30558666474778 -1 0 0
153 1 8.94666873541765 5.165361570517388 33.39332394577533 0 0 0
154 1 2.556190949974253 1.4758176575000723 35.48106077792169 0 0 0
155 1 5.112381960209635 1.4758176575000657 35.48106077792168 0 0 0
156 1 7.668572960209624 1.47581765750008 35.481060777921655 0 0 0
157 1 3.8342866333742553 3.6895439970825032 35.48106077515207 0 0 0
158 1 6.390477644259793 3.6895439999999637 35.48106077487439 0 0 0
160 1 5.112382297432861 5.90327033958247 35.48106077210475 0 0 0
161 1 7.668573297432902 5.903270345417345 35.48106077154945 0 0 0
159 1 8.94666863337425 3.689544002917437 35.481060774596756 0 0 0
162 1 10.224764308318447 5.903270342499925 35.48106077182712 0 0 0

Velocities

1 0 0 0
2 0 0 0
5 0 0 0
10 0 0 0
11 0 0 0
13 0 0 0
3 0 0 0
6 0 0 0
8 0 0 0
9 0 0 0
12 0 0 0
14 0 0 0
15 0 0 0
16 0 0 0
17 0 0 0
4 0 0 0
7 0 0 0
18 0 0 0
19 0 0 0
28 0 0 0
29 0 0 0
32 0 0 0
20 0 0 0
21 0 0 0
22 0 0 0
23 0 0 0
25 0 0 0
26 0 0 0
30 0 0 0
33 0 0 0
35 0 0 0
36 0 0 0
24 0 0 0
27 0 0 0
31 0 0 0
34 0 0 0
37 0 0 0
38 0 0 0
40 0 0 0
46 0 0 0
39 0 0 0
41 0 0 0
42 0 0 0
43 0 0 0
44 0 0 0
47 0 0 0
48 0 0 0
49 0 0 0
50 0 0 0
52 0 0 0
53 0 0 0
45 0 0 0
51 0 0 0
54 0 0 0
55 0 0 0
56 0 0 0
58 0 0 0
64 0 0 0
65 0 0 0
68 0 0 0
57 0 0 0
59 0 0 0
60 0 0 0
61 0 0 0
62 0 0 0
66 0 0 0
69 0 0 0
71 0 0 0
72 0 0 0
63 0 0 0
67 0 0 0
70 0 0 0
73 0 0 0
74 0 0 0
75 0 0 0
76 0 0 0
77 0 0 0
79 0 0 0
80 0 0 0
78 0 0 0
81 0 0 0
82 0 0 0
83 0 0 0
85 0 0 0
91 0 0 0
92 0 0 0
95 0 0 0
84 0 0 0
86 0 0 0
87 0 0 0
88 0 0 0
89 0 0 0
93 0 0 0
96 0 0 0
98 0 0 0
99 0 0 0
90 0 0 0
94 0 0 0
97 0 0 0
100 0 0 0
109 0 0 0
110 0 0 0
113 0 0 0
101 0 0 0
102 0 0 0
103 0 0 0
104 0 0 0
106 0 0 0
107 0 0 0
111 0 0 0
114 0 0 0
116 0 0 0
117 0 0 0
105 0 0 0
108 0 0 0
112 0 0 0
115 0 0 0
118 0 0 0
119 0 0 0
121 0 0 0
127 0 0 0
120 0 0 0
122 0 0 0
123 0 0 0
124 0 0 0
125 0 0 0
128 0 0 0
129 0 0 0
130 0 0 0
131 0 0 0
133 0 0 0
134 0 0 0
126 0 0 0
132 0 0 0
135 0 0 0
136 0 0 0
137 0 0 0
140 0 0 0
145 0 0 0
146 0 0 0
148 0 0 0
138 0 0 0
141 0 0 0
143 0 0 0
144 0 0 0
147 0 0 0
149 0 0 0
150 0 0 0
151 0 0 0
152 0 0 0
139 0 0 0
142 0 0 0
153 0 0 0
154 0 0 0
155 0 0 0
156 0 0 0
157 0 0 0
158 0 0 0
160 0 0 0
161 0 0 0
159 0 0 0
162 0 0 0
