LAMMPS data file via write_data, version 22 Jul 2025, timestep = 5, units = metal

27 atoms
3 atom types

0 7.668573 xlo xhi
0 6.641179 ylo yhi
0 6.261364 zlo zhi
3.834287 0 0 xy xz yz

Masses

1 63.55
2 63.55
3 63.55

Atoms # atomic

1 1 11.50285984062892 6.64117896693804 0.11243489392056745 -1 -1 0
2 1 2.5561908090559213 2.4947549573608387e-08 0.11243489630745682 0 0 0
5 1 3.8342863585748033 2.213726343282671 0.1124348950431071 0 0 0
10 1 2.5561909258536346 1.4758176302439197 2.087120999999999 0 0 0
19 1 11.50285984062892 6.641178966938039 4.06180710607943 -1 -1 0
20 1 2.5561908090559213 2.494754957727605e-08 4.061807103692541 0 0 0
23 1 3.8342863585748033 2.213726343282671 4.061807104956891 0 0 0
3 1 5.112381840628895 8.295719218178363e-08 0.11243489869435933 0 0 0
6 1 6.390477459171024 2.2137263449343925 0.1124348929188264 0 0 0
8 1 5.112382132921741 4.427452639808521 0.11243489602474323 0 0 0
9 1 7.668573132921772 4.427452749177387 0.1124348965499707 0 0 0
11 1 5.1123819622621 1.4758176850264102 2.087120999999999 0 0 0
12 1 7.668572962262127 1.475817575461612 2.087120999999999 0 0 0
13 1 3.8342867192373205 3.6895439578211224 2.087120999999999 0 0 0
14 1 6.3904777591837245 3.689543949989765 2.087120999999999 0 0 0
16 1 5.112382303539387 5.90327025705632 2.087120999999999 0 0 0
17 1 7.668573303539404 5.903270324976178 2.087120999999999 0 0 0
21 1 5.112381840628894 8.295719253244601e-08 4.061807101305638 0 0 0
24 1 6.390477459171024 2.2137263449343925 4.061807107081171 0 0 0
26 1 5.112382132921741 4.427452639808521 4.061807103975255 0 0 0
27 1 7.668573132921772 4.427452749177387 4.061807103450026 0 0 0
4 1 8.94666835857496 2.2137263465861654 0.11243489079454572 -1 0 0
7 1 10.224764101214301 4.427452694493061 0.11243489628735534 -1 0 0
15 1 8.946668719237366 3.6895439421584086 2.087120999999999 0 0 0
18 1 10.224764277500235 5.903270291016299 2.087120999999999 0 0 0
22 1 8.94666835857496 2.2137263465861654 4.061807109205453 -1 0 0
25 1 10.2247641012143 4.427452694493061 4.061807103712642 -1 0 0

Velocities

1 0 0 0
2 0 0 0
5 0 0 0
10 0 0 0
19 0 0 0
20 0 0 0
23 0 0 0
3 0 0 0
6 0 0 0
8 0 0 0
9 0 0 0
11 0 0 0
12 0 0 0
13 0 0 0
14 0 0 0
16 0 0 0
17 0 0 0
21 0 0 0
24 0 0 0
26 0 0 0
27 0 0 0
4 0 0 0
7 0 0 0
15 0 0 0
18 0 0 0
22 0 0 0
25 0 0 0
