LAMMPS data file via write_data, version 22 Jul 2025, timestep = 23, units = metal

405 atoms
3 atom types

0 7.668573 xlo xhi
0 6.641179 ylo yhi
0 93.920455 zlo zhi
3.834287 0 0 xy xz yz

Masses

1 63.55
2 63.55
3 63.55

Atoms # atomic

1 1 7.66857285842284 1.1675834057735295e-07 0.00024922601450009407 -1 0 0
2 1 2.5561908464593577 1.1865853434410712e-07 0.0002492277207584169 0 0 0
5 1 3.834286520049825 2.213726446380701 0.0002492261587067804 0 0 0
10 1 1.2780954065686427 0.7379088823003517 2.087618817677115 0 0 0
11 1 3.8342864065687046 0.7379088817108571 2.087618815611303 0 0 0
13 1 2.556191065446117 2.9516352228244744 2.0876188139464635 0 0 0
3 1 5.1123818584228164 1.2055874812498892e-07 0.0002492294270134438 0 0 0
6 1 6.390477518859507 2.213726445932449 0.00024922560585482773 0 0 0
8 1 5.112382188892497 4.427452778849987 0.00024923068177311835 0 0 0
9 1 7.668573188892512 4.427452776721991 0.00024923012544340374 0 0 0
12 1 6.390477404146862 0.7379088820056006 2.0876188166442136 0 0 0
14 1 5.11238207638883 2.9516352206273426 2.087618813059654 0 0 0
15 1 7.668573076388794 2.9516352250216533 2.0876188148332817 0 0 0
16 1 3.8342867419626563 5.165361553432264 2.0876188172284342 0 0 0
17 1 6.390477737893698 5.165361552794282 2.0876188157215645 0 0 0
4 1 8.946668520049846 2.2137264454841956 0.00024922505302212196 -1 0 0
7 1 10.224764184553887 4.427452777785959 0.0002492304035666873 -1 0 0
18 1 8.946668741962634 5.165361552156365 2.087618814214729 0 0 0
19 1 2.5561909529766664 1.4758176609993674 4.174988768409846 0 0 0
28 1 7.668572858455444 1.170525094345504e-07 6.2623582545888485 -1 0 0
29 1 2.556190846059639 1.1938894769791712e-07 6.2623582551716614 0 0 0
32 1 3.8342865201785297 2.213726447544174 6.262358253068038 0 0 0
20 1 5.1123819656447695 1.4758176610620788 4.174988768623405 0 0 0
21 1 7.668572965644736 1.4758176609366453 4.174988768196243 0 0 0
22 1 3.8342866297321843 3.6895440026054214 4.17498876849549 0 0 0
23 1 6.390477631775672 3.6895440005750357 4.174988766120794 0 0 0
25 1 5.112382293234148 5.903270340678947 4.174988763400539 0 0 0
26 1 7.668573293234216 5.903270336215181 4.1749887590451165 0 0 0
30 1 5.112381858455424 1.2172540480485716e-07 6.262358255754465 0 0 0
33 1 6.390477518267018 2.2137264467976494 6.262358253263923 0 0 0
35 1 5.112382188352125 4.427452777446704 6.262358255754346 0 0 0
36 1 7.6685731883521395 4.427452775344189 6.262358254635636 0 0 0
24 1 8.94666862973223 3.6895439985446856 4.1749887637461525 0 0 0
27 1 10.22476429514645 5.903270338447046 4.174988761222808 0 0 0
31 1 8.946668520178546 2.2137264460511217 6.262358253459818 -1 0 0
34 1 10.224764185304997 4.427452776395418 6.26235825519494 -1 0 0
37 1 1.2780954057248328 0.7379088813121584 8.349727587049601 0 0 0
38 1 3.8342864057248907 0.7379088793258145 8.349727587244427 0 0 0
40 1 2.556191063341133 2.9516352237189305 8.34972758681706 0 0 0
46 1 2.556190952632069 1.4758176653191717 10.437097421573649 0 0 0
39 1 6.390477404425876 0.7379088803189889 8.349727587147012 0 0 0
41 1 5.112382076734324 2.9516352211982038 8.349727586490726 0 0 0
42 1 7.668573076734281 2.9516352262397128 8.349727587143391 0 0 0
43 1 3.834286740816232 5.165361556176303 8.349727589846099 0 0 0
44 1 6.3904777388226774 5.165361554740323 8.34972758955799 0 0 0
47 1 5.1123819625080715 1.4758176661807505 10.437097422219326 0 0 0
48 1 7.6685729625080565 1.4758176644575736 10.437097420927923 0 0 0
49 1 3.834286628371843 3.6895440006828975 10.437097420122859 0 0 0
50 1 6.390477627893628 3.6895439997665926 10.437097416708955 0 0 0
52 1 5.112382291283238 5.903270340846576 10.43709741494641 0 0 0
53 1 7.668573291283309 5.903270337502708 10.437097409283915 0 0 0
45 1 8.946668740816193 5.165361553304409 8.349727589269913 0 0 0
51 1 8.946668628371892 3.6895439988503087 10.437097413295108 0 0 0
54 1 10.224764292459133 5.903270339174622 10.437097412115145 0 0 0
55 1 7.668572849702553 1.1800938371284199e-07 12.524467360361614 -1 0 0
56 1 2.5561908381171867 1.204578376134438e-07 12.524467361143257 0 0 0
59 1 3.83428651124614 2.2137264495820794 12.524467359614407 0 0 0
64 1 1.2780953807767046 0.7379088874812672 14.611837749133477 0 0 0
65 1 3.834286380776779 0.7379088919108364 14.611837744818516 0 0 0
67 1 2.5561910434389508 2.9516352254742193 14.611837742896194 0 0 0
57 1 5.112381849702529 1.2290630458219282e-07 12.524467361924911 0 0 0
60 1 6.390477510968139 2.213726449188286 12.524467359053697 0 0 0
62 1 5.1123821801923395 4.427452784766673 12.524467364373168 0 0 0
63 1 7.668573180192352 4.42745278105884 12.52446736436804 0 0 0
66 1 6.390477380868883 0.7379088896960491 14.611837746975992 0 0 0
68 1 5.112382050255604 2.951635223419781 14.611837742130087 0 0 0
69 1 7.668573050255576 2.951635227528696 14.611837743662308 0 0 0
70 1 3.8342867178989772 5.16536155654299 14.61183774424934 0 0 0
71 1 6.390477712098842 5.1653615554892705 14.611837744606005 0 0 0
58 1 8.946668511246152 2.2137264487944774 12.524467358492977 -1 0 0
61 1 10.224764176672183 4.427452782912733 12.524467364370558 -1 0 0
72 1 8.946668717898955 5.1653615544356235 14.61183774496269 0 0 0
73 1 2.556190897082172 1.4758176597659813 16.69920778811184 0 0 0
82 1 7.668572760319403 1.1183116028266355e-07 18.7865777636642 -1 0 0
83 1 2.5561907539963693 1.1491390698295661e-07 18.78657776269623 0 0 0
86 1 3.8342864262971834 2.2137264433218635 18.786577760881443 0 0 0
74 1 5.112381911448592 1.4758176601781505 16.699207789745113 0 0 0
75 1 7.668572911448586 1.4758176593537962 16.69920778647852 0 0 0
76 1 3.834286574901288 3.6895440051463324 16.699207791219767 0 0 0
77 1 6.390477577270149 3.6895440041646363 16.699207789119246 0 0 0
79 1 5.112382238999738 5.903270343245037 16.699207784132767 0 0 0
80 1 7.668573238999812 5.9032703338332775 16.699207782951728 0 0 0
84 1 5.112381760319372 1.1799667901142648e-07 18.786577761728243 0 0 0
87 1 6.390477422401553 2.2137264428199757 18.7865777602552 0 0 0
89 1 5.112382093389081 4.427452775517775 18.78657775931235 0 0 0
90 1 7.668573093389087 4.427452769650699 18.786577759746475 0 0 0
78 1 8.94666857490128 3.689544003182955 16.699207787018754 0 0 0
81 1 10.224764238028875 5.903270338539162 16.699207783542228 0 0 0
85 1 8.94666842629718 2.21372644231804 18.78657775962896 -1 0 0
88 1 10.224764090804138 4.4274527725842185 18.786577759529386 -1 0 0
91 1 1.278095264468731 0.7379088769166019 20.873947261447675 0 0 0
92 1 3.834286264468801 0.7379088824615294 20.873947262736237 0 0 0
94 1 2.556190927028652 2.951635219545332 20.87394726802502 0 0 0
93 1 6.3904772624321815 0.7379088796890797 20.873947262091953 0 0 0
95 1 5.112381933940594 2.9516352160539507 20.873947270572014 0 0 0
96 1 7.668572933940587 2.9516352230367615 20.873947265478012 0 0 0
97 1 3.834286597975664 5.165361551591928 20.87394726735377 0 0 0
98 1 6.390477599738203 5.165361549507856 20.87394726905494 0 0 0
99 1 8.946668597975634 5.165361547423874 20.873947270756144 0 0 0
100 1 2.5561907574288534 1.4758176594707535 22.961316806234525 0 0 0
109 1 7.668572583752475 1.0244996603945191e-07 25.04869776787773 -1 0 0
110 1 2.5561905736228208 1.0224934367682045e-07 25.04869777009383 0 0 0
113 1 3.83428625069455 2.213726430056055 25.048697771901086 0 0 0
101 1 5.1123817639731035 1.4758176597329304 22.961316805465014 0 0 0
102 1 7.6685727639731445 1.4758176592085497 22.96131680700401 0 0 0
103 1 3.8342864310431706 3.6895439932440817 22.961316798202976 0 0 0
104 1 6.390477427961838 3.689543995309584 22.961316795725196 0 0 0
106 1 5.112382093237138 5.903270331531598 22.961316799859162 0 0 0
107 1 7.668573093237212 5.903270324984386 22.961316793136294 0 0 0
111 1 5.112381583752478 1.0204871572097713e-07 25.048697772309932 0 0 0
114 1 6.3904772440014925 2.213726428346315 25.04869776954067 0 0 0
116 1 5.11238191481298 4.4274527685212695 25.048697778984568 0 0 0
117 1 7.66857291481301 4.427452760208398 25.04869777865523 0 0 0
105 1 8.946668431043156 3.689543997375085 22.961316793247423 0 0 0
108 1 10.224764088792115 5.903270328258016 22.961316796497716 0 0 0
112 1 8.946668250694525 2.2137264266365837 25.04869776718025 -1 0 0
115 1 10.224763913337924 4.4274527643648405 25.048697778819903 -1 0 0
118 1 1.2780950590572662 0.7379088697734714 27.136117801167902 0 0 0
119 1 3.83428605905735 0.7379088787152323 27.136117797732364 0 0 0
121 1 2.556190724011067 2.9516352076254386 27.13611779514419 0 0 0
127 1 2.556190517801231 1.4758176378971017 29.22062877291697 0 0 0
120 1 6.390477053140934 0.7379088742443487 27.13611779945013 0 0 0
122 1 5.112381725115559 2.951635208548937 27.136117793809397 0 0 0
123 1 7.668572725115566 2.9516352067019866 27.136117796479017 0 0 0
124 1 3.8342863915170744 5.165361536289651 27.136117793752714 0 0 0
125 1 6.390477386877791 5.165361534034564 27.136117793461064 0 0 0
128 1 5.112381528046477 1.4758176400648362 29.22062877324066 0 0 0
129 1 7.668572528046491 1.4758176357293622 29.220628772593283 0 0 0
130 1 3.834286188755054 3.689543985805822 29.220628773836957 0 0 0
131 1 6.390477198003234 3.6895439840905406 29.220628773870242 0 0 0
133 1 5.112381852663128 5.903270320606738 29.220628773029564 0 0 0
134 1 7.668572852663246 5.9032703151494905 29.22062877373034 0 0 0
126 1 8.946668391517083 5.165361531779512 27.136117793169408 0 0 0
132 1 8.946668188755005 3.689543982375234 29.220628773903524 0 0 0
135 1 10.224763852394322 5.903270317878175 29.22062877337995 0 0 0
136 1 1.278095058999376 0.7379088696898033 31.30513983573143 0 0 0
137 1 3.834286058999454 0.7379088787859647 31.305139838395267 0 0 0
139 1 2.5561907240765462 2.9516352074174828 31.305139840846532 0 0 0
145 1 7.6685725835457825 1.0174341303068897e-07 33.39256008249371 -1 0 0
146 1 2.5561905742887983 1.0164607387140462e-07 33.392560080631874 0 0 0
149 1 3.834286251001094 2.2137264306830486 33.392560076288866 0 0 0
138 1 6.390477053399481 0.7379088742378818 31.305139837063358 0 0 0
140 1 5.112381725153252 2.951635208468005 31.305139842369393 0 0 0
141 1 7.668572725153259 2.951635206367018 31.30513983932366 0 0 0
142 1 3.834286391683949 5.165361536576229 31.30513984186953 0 0 0
143 1 6.3904773866831315 5.165361534262209 31.305139841595373 0 0 0
147 1 5.112381583545786 1.0154873393001206e-07 33.39256007877005 0 0 0
150 1 6.390477243634407 2.213726429174168 33.392560079121736 0 0 0
152 1 5.11238191494616 4.427452767999984 33.392560070762194 0 0 0
153 1 7.668572914946194 4.427452760277713 33.39256007259978 0 0 0
144 1 8.94666839168395 5.16536153194822 31.305139841321218 0 0 0
148 1 8.946668251001062 2.2137264276653 33.39256008195462 -1 0 0
151 1 10.22476391331855 4.427452764138854 33.39256007168098 -1 0 0
154 1 2.5561907571281535 1.475817658980705 35.47994100556609 0 0 0
163 1 1.2780952647050439 0.7379088763921314 37.56731074499917 0 0 0
164 1 3.8342862647051064 0.7379088814271921 37.567310742240515 0 0 0
166 1 2.5561909268071386 2.951635220533514 37.56731073535034 0 0 0
155 1 5.112381764307343 1.4758176591808083 35.479941006558775 0 0 0
156 1 7.668572764307383 1.4758176587805731 35.47994100457342 0 0 0
157 1 3.834286431081263 3.68954399296647 35.4799410143721 0 0 0
158 1 6.390477428254989 3.689543994739445 35.47994101632312 0 0 0
160 1 5.112382093222424 5.903270332675941 35.47994101014007 0 0 0
161 1 7.668573093222498 5.903270325969069 35.47994101621094 0 0 0
165 1 6.390477262533747 0.7379088789096764 37.567310743619835 0 0 0
167 1 5.112381934334057 2.9516352168000517 37.5673107322199 0 0 0
168 1 7.668572934334046 2.9516352242670276 37.5673107384808 0 0 0
169 1 3.8342865978738927 5.165361551323012 37.56731073782623 0 0 0
170 1 6.390477600505825 5.165361549105312 37.567310735883915 0 0 0
159 1 8.946668431081251 3.6895439965124206 35.47994101827412 0 0 0
162 1 10.22476408918661 5.903270329322527 35.47994101317552 0 0 0
171 1 8.946668597873867 5.165361546887702 37.56731073394154 0 0 0
172 1 7.668572761421005 1.124654253325127e-07 39.65468053696564 -1 0 0
173 1 2.5561907534979027 1.1596876747618275e-07 39.654680538770776 0 0 0
176 1 3.8342864266743706 2.213726442685278 39.654680542474495 0 0 0
174 1 5.1123817614209734 1.1947212964010885e-07 39.654680540575924 0 0 0
177 1 6.390477423284647 2.2137264416876334 39.654680542469364 0 0 0
179 1 5.112382093298295 4.427452774950973 39.65468054470378 0 0 0
180 1 7.6685730932983045 4.427452768041751 39.6546805432463 0 0 0
175 1 8.946668426674366 2.2137264406899346 39.65468054246423 -1 0 0
178 1 10.224764092627863 4.427452771496346 39.654680543975076 -1 0 0
181 1 2.5561909008469246 1.475817658569138 41.742050684997075 0 0 0
190 1 1.2780953888695783 0.7379088855804153 43.82942088707058 0 0 0
191 1 3.834286388869646 0.7379088902321966 43.82942089146049 0 0 0
193 1 2.556191052164011 2.9516352199159503 43.829420894218146 0 0 0
182 1 5.1123819130182495 1.4758176581165954 41.742050684007516 0 0 0
183 1 7.668572913018236 1.4758176590216747 41.74205068598667 0 0 0
184 1 3.834286577376238 3.6895440051171713 41.74205068166665 0 0 0
185 1 6.390477579260686 3.6895440044097723 41.74205068391068 0 0 0
187 1 5.112382242017502 5.903270338920612 41.74205068837289 0 0 0
188 1 7.668573242017566 5.903270331598845 41.74205069100114 0 0 0
192 1 6.390477390487176 0.7379088879063131 43.82942088926554 0 0 0
194 1 5.11238205875025 2.9516352175234024 43.829420894606926 0 0 0
195 1 7.668573058750212 2.9516352223085187 43.829420893829344 0 0 0
196 1 3.834286726219201 5.165361554681134 43.8294208918585 0 0 0
197 1 6.390477720771029 5.165361552695259 43.82942089072002 0 0 0
186 1 8.946668577376233 3.6895440037023897 41.742050686154684 0 0 0
189 1 10.224764238920775 5.90327033525973 41.74205068968701 0 0 0
198 1 8.94666872621918 5.165361550709441 43.82942088958156 0 0 0
199 1 7.668572872990719 1.097011331802816e-07 45.916791667250614 -1 0 0
200 1 2.556190866404505 1.120936866327944e-07 45.91679166686186 0 0 0
203 1 3.834286535378314 2.2137264449788314 45.916791663212535 0 0 0
208 1 2.5561910058837927 1.4758176647402963 48.004161864686694 0 0 0
201 1 5.112381872990689 1.1448623113859611e-07 45.91679166647306 0 0 0
204 1 6.390477536995886 2.2137264473047362 45.91679166540746 0 0 0
206 1 5.112382205465893 4.427452782069894 45.91679166304782 0 0 0
207 1 7.668573205465906 4.427452778098218 45.91679166077082 0 0 0
209 1 5.11238201805512 1.4758176651928148 48.00416186567631 0 0 0
210 1 7.66857301805508 1.4758176642877676 48.004161863697114 0 0 0
211 1 3.8342866844703196 3.6895439992511085 48.00416186914895 0 0 0
212 1 6.390477681373602 3.6895439955902205 48.00416187046307 0 0 0
214 1 5.112382345766417 5.903270342138239 48.00416186713258 0 0 0
215 1 7.668573345766453 5.903270340723449 48.0041618716206 0 0 0
202 1 8.946668535378338 2.2137264496306184 45.91679166760237 -1 0 0
205 1 10.224764200017725 4.4274527800840335 45.91679166190934 -1 0 0
213 1 8.946668684470394 3.6895439919293676 48.00416187177718 0 0 0
216 1 10.224764347650858 5.90327034143081 48.0041618693766 0 0 0
217 1 1.2780955018508826 0.7379088850288786 50.09153201673319 0 0 0
218 1 3.834286501850894 0.7379088830335772 50.09153201672293 0 0 0
220 1 2.5561911629987537 2.951635228503589 50.09153201152381 0 0 0
226 1 7.668572999105419 1.1735684559691356e-07 52.178901810108826 -1 0 0
227 1 2.556190991578506 1.2109034435187034e-07 52.17890181323929 0 0 0
230 1 3.8342866617102667 2.213726448377145 52.17890182235457 0 0 0
219 1 6.390477498461166 0.7379088840312458 50.09153201672806 0 0 0
221 1 5.112382170921809 2.9516352250002567 50.091532009718684 0 0 0
222 1 7.668573170921777 2.9516352320069768 50.09153201332894 0 0 0
223 1 3.8342868346991383 5.165361561766975 50.09153201375821 0 0 0
224 1 6.390477834028639 5.165361558312379 50.091532013029465 0 0 0
228 1 5.112381999105419 1.2482379190533408e-07 52.178901816369745 0 0 0
231 1 6.390477659538973 2.2137264508946752 52.17890182097525 0 0 0
233 1 5.112382327740301 4.427452781684122 52.17890182345112 0 0 0
234 1 7.668573327740338 4.427452777248843 52.1789018195664 0 0 0
225 1 8.946668834699107 5.165361554857766 50.09153201230072 0 0 0
229 1 8.946668661710289 2.213726453412201 52.17890181959593 -1 0 0
232 1 10.224764330372253 4.427452779466447 52.17890182150881 -1 0 0
235 1 2.5561911559338975 1.475817670677476 54.26627154097454 0 0 0
244 1 1.27809568031391 0.7379088998627908 56.35365247354601 0 0 0
245 1 3.8342866803139257 0.7379088968450543 56.35365247921182 0 0 0
247 1 2.556191341118691 2.951635235861164 56.353652485329846 0 0 0
236 1 5.112382163113175 1.4758176704773653 54.26627153998192 0 0 0
237 1 7.668573163113097 1.475817670877607 54.26627154196724 0 0 0
238 1 3.834286833619156 3.6895440086139724 54.26627153479151 0 0 0
239 1 6.390477829583304 3.689544005260515 54.26627153782699 0 0 0
241 1 5.1123824956476795 5.903270339246342 54.26627154663299 0 0 0
242 1 7.668573495647662 5.903270342792318 54.266271550535 0 0 0
246 1 6.390477672947203 0.7379088983539306 56.353652476378905 0 0 0
248 1 5.1123823503757215 2.9516352359584794 56.35365248719167 0 0 0
249 1 7.668573350375681 2.9516352357638254 56.35365248346797 0 0 0
250 1 3.8342870129567457 5.1653615746869805 56.35365247697029 0 0 0
251 1 6.390478011329099 5.165361570825861 56.353652477889085 0 0 0
240 1 8.946668833619215 3.6895440019070747 54.2662715408624 0 0 0
243 1 10.224764492821421 5.903270341019289 54.266271548584015 0 0 0
252 1 8.946669012956772 5.165361566964703 56.353652478807916 0 0 0
253 1 2.0520567300056497e-07 1.268126258092455e-07 58.44107271978876 0 0 0
254 1 2.5561912041289236 1.2576213538752673e-07 58.44107271826588 0 0 0
257 1 3.8342868707268662 2.213726461189694 58.441072712401954 0 0 0
255 1 5.1123822052056775 1.2471161552218614e-07 58.441072716743015 0 0 0
258 1 6.390477865126956 2.2137264657377846 58.441072713733895 0 0 0
260 1 5.112382536716409 4.427452794896522 58.44107271475689 0 0 0
261 1 7.668573536716426 4.427452790268515 58.44107271420857 0 0 0
256 1 1.2780958707269099 2.2137264702858683 58.441072715065786 0 0 0
259 1 2.5561915317155726 4.427452792582472 58.441072714482736 0 0 0
262 1 2.5561913916003194 1.4758176821218452 60.52558378115323 0 0 0
271 1 2.0526369324954493e-07 1.2667914170935423e-07 62.610094755210284 0 0 0
272 1 2.5561912041591577 1.257556762105079e-07 62.61009475654511 0 0 0
275 1 3.834286870881963 2.213726461494548 62.61009476425202 0 0 0
263 1 5.112382401845663 1.4758176799541038 60.52558378082956 0 0 0
264 1 7.668573401845601 1.4758176842895814 60.52558378147689 0 0 0
265 1 3.834287069154457 3.689544018638084 60.525583780312616 0 0 0
266 1 6.390478068885615 3.689544015909472 60.52558378066299 0 0 0
268 1 5.11238273214724 5.903270363818238 60.52558378158292 0 0 0
269 1 7.668573732147228 5.903270360387636 60.525583781649516 0 0 0
273 1 5.112382205263687 1.2483217906458232e-07 62.610094757879935 0 0 0
276 1 6.390477864965598 2.213726465965435 62.610094762534196 0 0 0
278 1 5.11238253664486 4.427452794629614 62.61009476114276 0 0 0
279 1 7.66857353664488 4.427452790119492 62.61009476055944 0 0 0
267 1 8.946669069154511 3.689544013180863 60.52558378101338 0 0 0
270 1 10.224764741395427 5.90327036210289 60.52558378161621 0 0 0
274 1 1.2780958708820094 2.2137264704363133 62.61009476081643 0 0 0
277 1 2.5561915320055757 4.427452792374504 62.6100947608511 0 0 0
280 1 1.2780956801710122 0.7379088994603982 64.69751478851983 0 0 0
281 1 3.834286680171031 0.7379088960409278 64.69751478379898 0 0 0
283 1 2.556191340619901 2.9516352356351736 64.69751477743334 0 0 0
289 1 2.55619115647633 1.4758176717419855 66.78489575787538 0 0 0
282 1 6.39047767347794 0.737908897750672 64.69751478615942 0 0 0
284 1 5.112382350749565 2.95163523583577 64.69751477521724 0 0 0
285 1 7.668573350749526 2.9516352354345443 64.6975147796495 0 0 0
286 1 3.8342870129878532 5.165361575810087 64.69751478687726 0 0 0
287 1 6.390478011512785 5.165361571653679 64.69751478671262 0 0 0
290 1 5.112382163020673 1.4758176714797997 66.78489575864484 0 0 0
291 1 7.668573163020591 1.4758176720041898 66.78489575710584 0 0 0
292 1 3.83428683387341 3.6895440079640114 66.78489576200936 0 0 0
293 1 6.390477829428358 3.689544004690386 66.78489575864789 0 0 0
295 1 5.112382495852452 5.903270338463769 66.78489575061634 0 0 0
296 1 7.668573495852427 5.903270342594791 66.78489574566082 0 0 0
288 1 8.946669012987883 5.165361567497232 64.69751478654796 0 0 0
294 1 8.94666883387347 3.689544001416772 66.78489575528648 0 0 0
297 1 10.224764492771131 5.903270340529241 66.78489574813857 0 0 0
298 1 7.668572999091931 1.168195052595324e-07 68.87226529585979 -1 0 0
299 1 2.5561909921799906 1.203109257166946e-07 68.87226529331276 0 0 0
302 1 3.8342866618585276 2.2137264477196688 68.87226528570545 0 0 0
307 1 1.278095502573898 0.7379088855879707 70.9596347948919 0 0 0
308 1 3.834286502573913 0.7379088845841554 70.95963479363942 0 0 0
310 1 2.5561911646239315 2.9516352274157405 70.95963479743247 0 0 0
300 1 5.112381999091933 1.2380230252174595e-07 68.87226529076577 0 0 0
303 1 6.3904776598219515 2.21372645049214 68.87226528634974 0 0 0
305 1 5.11238232822087 4.427452782538665 68.87226528567855 0 0 0
306 1 7.6685733282208925 4.427452778370638 68.87226528908096 0 0 0
309 1 6.39047749867828 0.7379088850860736 70.95963479426567 0 0 0
311 1 5.1123821709469235 2.9516352243329944 70.95963479840046 0 0 0
312 1 7.668573170946901 2.9516352304985367 70.9596347964645 0 0 0
313 1 3.8342868358769113 5.165361560113559 70.95963479648964 0 0 0
314 1 6.390477833291957 5.16536155718004 70.95963479670668 0 0 0
301 1 8.94666866185855 2.2137264532646004 68.87226528699402 -1 0 0
304 1 10.224764329983419 4.427452780454615 68.8722652873797 -1 0 0
315 1 8.946668835876892 5.1653615542465 70.95963479692377 0 0 0
316 1 2.556191006724471 1.4758176614608522 73.04700477052911 0 0 0
325 1 7.668572881701555 1.0824950398055973e-07 75.13437480927341 -1 0 0
326 1 2.5561908748848743 1.1030395973531895e-07 75.13437481003952 0 0 0
329 1 3.834286544428698 2.2137264422958896 75.13437481456695 0 0 0
317 1 5.112382021090926 1.4758176610486584 73.04700476889577 0 0 0
318 1 7.668573021090875 1.4758176618730565 73.0470047721624 0 0 0
319 1 3.834286686058966 3.689544000541268 73.04700476554257 0 0 0
320 1 6.390477685088108 3.6895439958353724 73.04700476495208 0 0 0
322 1 5.1123823479015575 5.903270341215717 73.04700476806002 0 0 0
323 1 7.668573347901585 5.9032703392523285 73.04700476385901 0 0 0
327 1 5.112381881701532 1.1235841672221555e-07 75.13437481080562 0 0 0
330 1 6.390477544520838 2.2137264445106886 75.13437481240946 0 0 0
332 1 5.112382214052014 4.427452775579479 75.13437481376262 0 0 0
333 1 7.668573214052021 4.427452773472087 75.13437481447599 0 0 0
321 1 8.94666868605903 3.689543991129521 73.04700476436157 0 0 0
324 1 10.224764350270409 5.903270340233989 73.0470047659595 0 0 0
328 1 8.946668544428718 2.2137264467254725 75.134374810252 -1 0 0
331 1 10.224764208251871 4.4274527745257615 75.13437481411924 -1 0 0
334 1 1.2780954144666357 0.7379088799359474 77.2217451946806 0 0 0
335 1 3.8342864144666855 0.7379088791483455 77.22174519355913 0 0 0
337 1 2.556191073601598 2.9516352170872393 77.22174519089256 0 0 0
336 1 6.390477414188643 0.737908879542159 77.22174519411988 0 0 0
338 1 5.112382085187005 2.951635214638789 77.2217451901109 0 0 0
339 1 7.668573085186965 2.9516352195357234 77.2217451916742 0 0 0
340 1 3.834286750228909 5.165361552665688 77.221745196212 0 0 0
341 1 6.39047774670872 5.165361550811742 77.22174519620941 0 0 0
342 1 8.946668750228875 5.16536154895783 77.22174519620684 0 0 0
343 1 2.556190957146627 1.4758176608253557 79.30911514249355 0 0 0
352 1 7.668572859431156 1.1716030116427827e-07 81.39648496863178 -1 0 0
353 1 2.556190846037943 1.196810428017968e-07 81.3964849689581 0 0 0
356 1 3.8342865205998704 2.2137264462528266 81.39648496644978 0 0 0
344 1 5.1123819670226585 1.4758176599637456 79.30911514184783 0 0 0
345 1 7.668572967022615 1.4758176616869485 79.30911514313922 0 0 0
346 1 3.834286632339867 3.689544001905338 79.30911514073102 0 0 0
347 1 6.390477633515759 3.6895440002333797 79.30911513789975 0 0 0
349 1 5.112382296348685 5.903270335597145 79.30911513644891 0 0 0
350 1 7.668573296348754 5.9032703337645565 79.30911512962116 0 0 0
354 1 5.1123818594311405 1.2220181311193501e-07 81.39648496928443 0 0 0
357 1 6.390477519300918 2.213726445259645 81.39648496654718 0 0 0
359 1 5.112382188624601 4.427452777716986 81.39648496957624 0 0 0
360 1 7.6685731886246025 4.427452774845072 81.39648496900001 0 0 0
348 1 8.94666863233992 3.68954399856146 79.30911513506851 0 0 0
351 1 10.224764295870482 5.903270334680836 79.30911513303504 0 0 0
355 1 8.946668520599887 2.2137264442664595 81.3964849666446 -1 0 0
358 1 10.224764186631115 4.427452776281001 81.39648496928807 -1 0 0
361 1 1.2780954065614396 0.7379088813575994 83.4838543006878 0 0 0
362 1 3.834286406561483 0.7379088798645604 83.48385430107959 0 0 0
364 1 2.55619106463848 2.951635223604527 83.48385430086044 0 0 0
370 1 2.5561909530895854 1.4758176615529517 85.57122379336423 0 0 0
363 1 6.390477404649912 0.7379088806110811 83.4838543008837 0 0 0
365 1 5.112382077034264 2.9516352212681016 83.48385430027764 0 0 0
366 1 7.668573077034231 2.9516352259409984 83.48385430144324 0 0 0
367 1 3.8342867417820528 5.165361554253591 83.48385430335084 0 0 0
368 1 6.390477738734867 5.165361553202324 83.48385430279146 0 0 0
371 1 5.112381965757687 1.4758176614902252 85.57122379315062 0 0 0
372 1 7.668572965757645 1.4758176616156824 85.57122379357779 0 0 0
373 1 3.8342866298888163 3.689544001656824 85.571223790644 0 0 0
374 1 6.390477631801096 3.6895439994249175 85.57122378846627 0 0 0
376 1 5.11238229330319 5.903270341031002 85.5712237885519 0 0 0
377 1 7.668573293303258 5.90327033697027 85.57122378380261 0 0 0
369 1 8.94666874178203 5.165361552151099 83.48385430223216 0 0 0
375 1 8.946668629888856 3.689543997193061 85.57122378628858 0 0 0
378 1 10.224764295346677 5.903270339000617 85.57122378617724 0 0 0
379 1 7.668572858132739 1.1579722426653499e-07 87.65859373772435 -1 0 0
380 1 2.5561908471900625 1.1799436858491506e-07 87.65859373861115 0 0 0
383 1 3.834286520510279 2.213726447500476 87.65859374056667 0 0 0
388 1 1.2780954062068282 0.7379088817897181 89.74596333004101 0 0 0
389 1 3.834286406206889 0.7379088808932104 89.7459633289353 0 0 0
391 1 2.5561910648143504 2.9516352222139997 89.74596332680531 0 0 0
381 1 5.112381858132706 1.201915273885242e-07 87.65859373949796 0 0 0
384 1 6.390477518088492 2.213726447205738 87.65859373953377 0 0 0
386 1 5.112382188852448 4.427452777813465 87.65859374281578 0 0 0
387 1 7.668573188852469 4.427452776537578 87.6585937398021 0 0 0
390 1 6.390477405016529 0.7379088813414615 89.74596332948818 0 0 0
392 1 5.112382076777807 2.9516352203138183 89.74596332509903 0 0 0
393 1 7.668573076777778 2.951635224114231 89.74596332851158 0 0 0
394 1 3.8342867421010243 5.165361555131527 89.74596333188121 0 0 0
395 1 6.390477737762394 5.165361554067512 89.74596333160306 0 0 0
382 1 8.946668520510299 2.213726446910994 87.6585937385009 -1 0 0
385 1 10.224764184783515 4.427452777175491 87.6585937413089 -1 0 0
396 1 8.946668742100995 5.165361553003555 89.74596333132492 0 0 0
397 1 2.556190953662158 1.4758176623357424 91.83333378201826 0 0 0
398 1 5.112381965385966 1.4758176623357346 91.83333378201823 0 0 0
399 1 7.668572965385921 1.4758176623357477 91.83333378201826 0 0 0
400 1 3.8342866299712393 3.6895440018571146 91.83333377998055 0 0 0
401 1 6.3904776314653144 3.689544000000006 91.83333377695851 0 0 0
403 1 5.112382293428994 5.903270339521367 91.83333377492086 0 0 0
404 1 7.668573293429052 5.903270335807146 91.8333337688768 0 0 0
402 1 8.946668629971278 3.6895439981429266 91.83333377393652 0 0 0
405 1 10.224764294923059 5.903270337664246 91.83333377189881 0 0 0

Velocities

1 0 0 0
2 0 0 0
5 0 0 0
10 0 0 0
11 0 0 0
13 0 0 0
3 0 0 0
6 0 0 0
8 0 0 0
9 0 0 0
12 0 0 0
14 0 0 0
15 0 0 0
16 0 0 0
17 0 0 0
4 0 0 0
7 0 0 0
18 0 0 0
19 0 0 0
28 0 0 0
29 0 0 0
32 0 0 0
20 0 0 0
21 0 0 0
22 0 0 0
23 0 0 0
25 0 0 0
26 0 0 0
30 0 0 0
33 0 0 0
35 0 0 0
36 0 0 0
24 0 0 0
27 0 0 0
31 0 0 0
34 0 0 0
37 0 0 0
38 0 0 0
40 0 0 0
46 0 0 0
39 0 0 0
41 0 0 0
42 0 0 0
43 0 0 0
44 0 0 0
47 0 0 0
48 0 0 0
49 0 0 0
50 0 0 0
52 0 0 0
53 0 0 0
45 0 0 0
51 0 0 0
54 0 0 0
55 0 0 0
56 0 0 0
59 0 0 0
64 0 0 0
65 0 0 0
67 0 0 0
57 0 0 0
60 0 0 0
62 0 0 0
63 0 0 0
66 0 0 0
68 0 0 0
69 0 0 0
70 0 0 0
71 0 0 0
58 0 0 0
61 0 0 0
72 0 0 0
73 0 0 0
82 0 0 0
83 0 0 0
86 0 0 0
74 0 0 0
75 0 0 0
76 0 0 0
77 0 0 0
79 0 0 0
80 0 0 0
84 0 0 0
87 0 0 0
89 0 0 0
90 0 0 0
78 0 0 0
81 0 0 0
85 0 0 0
88 0 0 0
91 0 0 0
92 0 0 0
94 0 0 0
93 0 0 0
95 0 0 0
96 0 0 0
97 0 0 0
98 0 0 0
99 0 0 0
100 0 0 0
109 0 0 0
110 0 0 0
113 0 0 0
101 0 0 0
102 0 0 0
103 0 0 0
104 0 0 0
106 0 0 0
107 0 0 0
111 0 0 0
114 0 0 0
116 0 0 0
117 0 0 0
105 0 0 0
108 0 0 0
112 0 0 0
115 0 0 0
118 0 0 0
119 0 0 0
121 0 0 0
127 0 0 0
120 0 0 0
122 0 0 0
123 0 0 0
124 0 0 0
125 0 0 0
128 0 0 0
129 0 0 0
130 0 0 0
131 0 0 0
133 0 0 0
134 0 0 0
126 0 0 0
132 0 0 0
135 0 0 0
136 0 0 0
137 0 0 0
139 0 0 0
145 0 0 0
146 0 0 0
149 0 0 0
138 0 0 0
140 0 0 0
141 0 0 0
142 0 0 0
143 0 0 0
147 0 0 0
150 0 0 0
152 0 0 0
153 0 0 0
144 0 0 0
148 0 0 0
151 0 0 0
154 0 0 0
163 0 0 0
164 0 0 0
166 0 0 0
155 0 0 0
156 0 0 0
157 0 0 0
158 0 0 0
160 0 0 0
161 0 0 0
165 0 0 0
167 0 0 0
168 0 0 0
169 0 0 0
170 0 0 0
159 0 0 0
162 0 0 0
171 0 0 0
172 0 0 0
173 0 0 0
176 0 0 0
174 0 0 0
177 0 0 0
179 0 0 0
180 0 0 0
175 0 0 0
178 0 0 0
181 0 0 0
190 0 0 0
191 0 0 0
193 0 0 0
182 0 0 0
183 0 0 0
184 0 0 0
185 0 0 0
187 0 0 0
188 0 0 0
192 0 0 0
194 0 0 0
195 0 0 0
196 0 0 0
197 0 0 0
186 0 0 0
189 0 0 0
198 0 0 0
199 0 0 0
200 0 0 0
203 0 0 0
208 0 0 0
201 0 0 0
204 0 0 0
206 0 0 0
207 0 0 0
209 0 0 0
210 0 0 0
211 0 0 0
212 0 0 0
214 0 0 0
215 0 0 0
202 0 0 0
205 0 0 0
213 0 0 0
216 0 0 0
217 0 0 0
218 0 0 0
220 0 0 0
226 0 0 0
227 0 0 0
230 0 0 0
219 0 0 0
221 0 0 0
222 0 0 0
223 0 0 0
224 0 0 0
228 0 0 0
231 0 0 0
233 0 0 0
234 0 0 0
225 0 0 0
229 0 0 0
232 0 0 0
235 0 0 0
244 0 0 0
245 0 0 0
247 0 0 0
236 0 0 0
237 0 0 0
238 0 0 0
239 0 0 0
241 0 0 0
242 0 0 0
246 0 0 0
248 0 0 0
249 0 0 0
250 0 0 0
251 0 0 0
240 0 0 0
243 0 0 0
252 0 0 0
253 0 0 0
254 0 0 0
257 0 0 0
255 0 0 0
258 0 0 0
260 0 0 0
261 0 0 0
256 0 0 0