Converted from struttt/Cut_1_Block_X2_Z2_N238.vasp (Triclinic/Cu)

238 atoms
3 atom types
0.0 13.766346 xlo xhi
0.0 13.435039 ylo yhi
0.0 15.475764 zlo zhi
0.000000 0.000000 0.000000 xy xz yz

Masses

1 63.546
2 63.546
3 63.546

Atoms # atomic

1 1 1.447073 0.058669 0.802832
2 1 8.126373 4.498569 0.638132
3 1 9.437673 5.829269 2.571932
4 1 7.954173 4.442269 4.377432
5 1 9.190073 5.740769 6.449832
6 1 10.408973 6.049569 10.546632
7 1 11.822373 7.483569 12.575032
8 1 8.079773 7.001569 0.580732
9 1 9.552273 8.185469 2.706532
10 1 8.114073 6.951169 4.545432
11 1 6.854473 8.124169 6.506432
12 1 8.077573 6.900669 8.386232
13 1 9.317973 8.390769 10.202932
14 1 9.166173 9.079869 14.758832
15 1 8.134073 9.501169 0.810732
16 1 9.604573 10.693169 2.738832
17 1 8.242273 9.399669 4.541032
18 1 9.455773 10.729669 6.684232
19 1 5.627373 9.591469 8.244632
20 1 6.933473 10.907369 10.161932
21 1 8.041173 9.665969 12.306632
22 1 7.951873 11.136269 14.984032
23 1 8.250073 11.971869 0.689032
24 1 9.485273 13.132969 2.527132
25 1 8.172773 12.038169 4.566332
26 1 9.502973 13.308669 6.697232
27 1 10.445673 5.486769 13.493232
28 1 9.128773 4.322569 11.843732
29 1 11.797873 4.857569 8.725932
30 1 10.490573 3.541369 6.899032
31 1 5.730273 9.457269 0.736432
32 1 6.988273 10.707069 2.801032
33 1 5.744173 9.506669 4.530032
34 1 7.030473 10.781069 6.439832
35 1 3.006073 9.736169 8.419632
36 1 4.325773 10.804769 10.369032
37 1 5.422773 9.520269 12.228732
38 1 5.460873 11.281869 15.120732
39 1 5.808673 11.961669 0.809232
40 1 6.934373 13.198369 2.638832
41 1 5.730973 11.947969 4.589232
42 1 6.916073 13.376369 6.401232
43 1 8.225873 12.016869 8.424932
44 1 5.608073 12.062869 8.284932
45 1 4.149473 11.933369 12.804332
46 1 10.329873 0.823969 6.467132
47 1 10.289473 0.578869 10.080232
48 1 10.337873 0.532769 13.701232
49 1 10.502573 1.191569 2.740932
50 1 11.681573 2.298269 4.852732
51 1 9.232273 1.958369 8.238032
52 1 10.394373 2.988569 10.049732
53 1 9.162873 1.843669 12.024032
54 1 10.579473 3.003269 13.754332
55 1 7.821573 2.095369 0.651532
56 1 9.277173 3.297069 2.605332
57 1 5.476573 12.913369 10.860732
58 1 7.976473 13.145369 10.936532
59 1 6.537173 11.658269 12.992032
60 1 12.998473 0.847669 6.504532
61 1 10.514773 9.631669 12.444432
62 1 10.480973 11.172269 14.883632
63 1 10.888273 11.997069 0.690532
64 1 11.951073 13.083069 2.577932
65 1 10.573673 12.072169 4.641832
66 1 12.055873 13.241269 6.525532
67 1 10.731773 12.011769 8.472932
68 1 10.567873 13.016769 10.952032
69 1 9.205673 11.828669 12.798432
70 1 12.968173 2.163669 0.442132
71 1 13.161873 4.672269 0.685732
72 1 12.939073 4.342169 4.489032
73 1 9.484173 10.833569 10.296032
74 1 13.169473 7.076369 0.896932
75 1 11.921373 7.995569 6.415532
76 1 13.162673 7.083969 8.417332
77 1 13.241573 9.436769 0.648732
78 1 13.197873 9.321469 4.540332
79 1 10.809473 9.443869 8.491632
80 1 11.959073 10.943869 10.473532
81 1 13.010673 9.854969 12.478032
82 1 12.899073 11.058269 15.067632
83 1 13.462573 11.922469 0.634732
84 1 13.169573 11.798069 4.597832
85 1 13.140273 12.240369 8.666532
86 1 12.964973 13.294369 10.980832
87 1 13.177373 6.878669 4.541132
88 1 6.604973 8.967669 14.842032
89 1 8.077873 9.457669 8.340432
90 1 10.791473 9.499569 4.860032
91 1 12.932573 0.543569 9.976732
92 1 13.054773 0.596569 13.609432
93 1 13.039773 1.148169 2.840932
94 1 11.620373 1.934869 8.372532
95 1 12.953873 3.142869 10.007232
96 1 11.697073 1.811569 11.842932
97 1 13.005773 3.049069 13.694932
98 1 10.514973 2.137969 0.354532
99 1 11.794473 3.344169 2.525732
100 1 12.921773 3.496669 6.941332
101 1 11.660073 4.239969 11.727532
102 1 12.849573 5.572969 13.549732
103 1 12.020573 10.643569 6.626632
104 1 10.611873 4.483369 0.648932
105 1 10.373073 4.432669 4.410232
106 1 11.635373 5.600869 6.357932
107 1 12.923273 6.106669 10.667632
108 1 10.609773 6.967369 0.647032
109 1 11.893673 8.392369 2.645132
110 1 10.597373 7.000469 4.570732
111 1 9.256773 8.227569 6.522232
112 1 10.675973 7.064169 8.258332
113 1 11.777073 8.482069 10.447932
114 1 11.621973 9.001569 14.633832
115 1 10.767573 9.335969 0.633232
116 1 12.066373 10.735269 2.456032
117 1 11.802773 5.901069 2.609632
118 1 6.935473 8.257769 10.311432
119 1 5.562473 7.096069 8.287532
120 1 4.388273 8.317669 6.456732
121 1 0.688073 6.991569 0.820632
122 1 1.932073 8.339469 2.745232
123 1 0.555973 7.048569 4.624732
124 1 0.516573 7.116669 8.332132
125 1 1.609973 8.542969 10.383732
126 1 1.526273 9.128369 14.605132
127 1 0.652573 9.503369 0.782032
128 1 1.866773 10.773469 2.821932
129 1 0.614673 9.607069 4.513932
130 1 1.774573 10.731669 6.420532
131 1 0.419073 9.769369 12.237932
132 1 0.650873 11.937269 0.793632
133 1 4.045973 7.496569 12.624832
134 1 1.947073 13.190069 2.667332
135 1 1.921673 13.313969 6.520532
136 1 0.603973 12.159669 8.392232
137 1 0.441073 13.179769 10.916532
138 1 5.516273 0.739069 6.427132
139 1 5.403873 0.585769 10.059332
140 1 5.212073 0.424069 13.560332
141 1 5.521573 1.114269 2.800532
142 1 6.818373 2.173169 4.785632
143 1 4.131773 1.955769 8.236532
144 1 5.533073 2.959769 9.978532
145 1 4.206173 1.769969 11.774732
146 1 5.386273 2.967369 13.671932
147 1 0.547673 12.049469 4.570832
148 1 2.658873 2.225269 0.554632
149 1 2.898173 6.207469 10.728532
150 1 0.579373 4.479369 4.433832
151 1 0.342773 0.761969 6.436932
152 1 0.422273 1.238769 2.856632
153 1 1.748273 2.261269 4.889932
154 1 0.334773 3.170769 10.167832
155 1 0.303773 3.070469 13.581632
156 1 0.389473 3.605369 6.647332
157 1 1.602373 4.907669 8.743432
158 1 0.406773 6.159669 10.717032
159 1 1.508973 7.578269 12.658132
160 1 3.904173 0.120469 0.850632
161 1 3.012673 0.724269 6.368032
162 1 2.947473 0.826669 10.027032
163 1 1.750273 5.912469 6.521432
164 1 2.607373 0.467469 13.523732
165 1 4.260573 2.219969 4.920832
166 1 1.635673 2.069369 8.198832
167 1 2.827873 3.178669 10.028132
168 1 1.577573 1.831769 11.680932
169 1 2.743173 3.057169 13.622732
170 1 1.638673 3.239669 2.570432
171 1 2.910473 3.725569 6.854532
172 1 4.265873 4.891369 8.808032
173 1 1.611673 4.262869 11.844632
174 1 2.740373 5.468469 13.593132
175 1 0.573473 4.669769 0.832832
176 1 1.912073 5.767969 2.690232
177 1 2.895273 1.060069 2.836532
178 1 11.643173 11.890069 12.799232
179 1 4.193273 3.155669 2.422732
180 1 6.745973 4.997769 9.007132
181 1 1.598073 11.964969 12.829632
182 1 9.152373 0.073269 0.807332
183 1 7.930073 0.829769 6.449232
184 1 7.835673 0.551369 10.043532
185 1 7.733473 0.453669 13.719432
186 1 7.968873 1.106069 2.791532
187 1 9.196173 2.294669 4.846432
188 1 6.710873 1.998769 8.141332
189 1 7.994173 3.069769 10.055332
190 1 6.731873 1.687169 11.899732
191 1 7.930373 3.021069 13.712632
192 1 5.359573 2.139369 0.461732
193 1 2.956973 12.983269 10.786232
194 1 6.751173 3.295669 2.420432
195 1 9.325173 4.560669 8.708832
196 1 6.637273 4.307069 11.834932
197 1 7.934573 5.675369 13.565132
198 1 5.432673 4.565869 0.795432
199 1 6.842073 5.712969 2.654232
200 1 5.511573 4.332469 4.460132
201 1 6.736973 5.652969 6.350132
202 1 8.068473 6.137169 10.864732
203 1 9.196773 7.500269 12.539732
204 1 5.523773 7.027169 0.652832
205 1 7.005473 8.250469 2.753632
206 1 5.516073 6.895569 4.584532
207 1 7.933173 3.577469 6.687932
208 1 5.436373 3.539569 6.758332
209 1 3.156373 12.146469 8.346132
210 1 3.183473 12.019769 4.557832
211 1 4.084373 4.305469 11.828232
212 1 5.250573 5.515369 13.564332
213 1 3.099073 4.451769 0.765532
214 1 4.301373 5.623669 2.713732
215 1 3.076473 4.382969 4.451732
216 1 4.214973 5.766469 6.476532
217 1 5.294073 6.151469 10.833532
218 1 6.662873 7.566269 12.905132
219 1 4.080873 6.955369 15.121232
220 1 3.109373 6.977769 0.696732
221 1 4.539173 8.006469 2.583432
222 1 3.184073 7.013969 4.615232
223 1 4.421473 13.328769 6.324132
224 1 1.854773 8.367169 6.472632
225 1 4.326273 8.351669 10.195732
226 1 4.037173 9.310769 14.585932
227 1 3.235173 9.417969 0.794632
228 1 4.543773 10.675869 2.620932
229 1 3.304473 9.650769 4.641232
230 1 4.408373 10.828769 6.398832
231 1 0.434973 9.547769 8.295132
232 1 1.711673 11.099669 10.341632
233 1 2.887873 9.808869 12.359332
234 1 2.933173 11.313769 15.036732
235 1 3.358273 11.939669 0.649432
236 1 4.441073 13.347269 2.683932
237 1 3.038773 7.205169 8.388332
238 1 13.291073 9.715169 8.558332
