Converted from struttt/Cut_4_Block_X3_Z1_N230.vasp (Triclinic/Cu)

230 atoms
3 atom types
0.0 13.682025 xlo xhi
0.0 13.433651 ylo yhi
0.0 14.688550 zlo zhi
0.000000 0.000000 0.000000 xy xz yz

Masses

1 63.546
2 63.546
3 63.546

Atoms # atomic

1 1 0.072263 1.551375 2.229275
2 1 8.970762 2.626575 0.257875
3 1 10.155663 4.037375 2.263375
4 1 8.947363 2.692675 4.147775
5 1 10.097663 3.790075 6.110275
6 1 8.808263 2.712875 7.922875
7 1 10.212262 3.806375 9.877075
8 1 7.747463 2.762975 12.376175
9 1 8.688262 3.910475 14.451975
10 1 8.901463 5.170775 0.217875
11 1 10.085863 6.445475 1.995775
12 1 8.843163 5.189175 4.035275
13 1 8.794763 0.538675 12.770175
14 1 10.083263 6.312875 5.990575
15 1 10.970562 6.306175 10.113475
16 1 9.106163 4.886075 12.135475
17 1 9.903663 6.220475 14.196775
18 1 8.741162 7.659675 0.221275
19 1 10.152863 8.904575 2.149975
20 1 8.842663 7.728075 4.076875
21 1 11.087563 8.631975 6.370575
22 1 9.745563 7.481775 8.250775
23 1 9.593763 8.520575 10.729975
24 1 8.332263 7.271275 12.397175
25 1 9.677263 8.763075 14.279075
26 1 8.708263 5.184375 7.965175
27 1 8.987763 1.659875 10.246075
28 1 7.743363 0.347575 8.444275
29 1 10.355163 1.231975 5.906375
30 1 7.308962 6.345475 14.347475
31 1 6.282363 7.556375 0.315175
32 1 7.459563 8.960175 2.181075
33 1 6.222863 7.784675 4.032375
34 1 8.650362 8.673875 6.301575
35 1 7.120363 7.466775 8.251475
36 1 7.170863 8.482775 10.645775
37 1 5.773963 7.408075 12.355875
38 1 7.154963 8.883575 14.442875
39 1 6.249062 10.204275 0.129475
40 1 8.729563 11.254275 2.516075
41 1 7.436563 10.014175 4.452875
42 1 7.390663 10.926575 6.853475
43 1 6.011563 9.646275 8.739475
44 1 7.253963 10.949475 10.552175
45 1 5.980963 9.868475 12.443075
46 1 7.259962 11.369775 14.331075
47 1 7.517163 12.421775 0.759375
48 1 7.567163 13.391375 3.186675
49 1 6.143962 12.239575 5.045375
50 1 6.154462 12.196575 8.647275
51 1 6.053463 12.460875 12.280075
52 1 9.071563 0.183575 0.314175
53 1 10.225463 1.500475 2.158175
54 1 9.119363 0.245575 4.046975
55 1 8.747063 10.231575 0.293275
56 1 11.301462 11.171375 2.606475
57 1 9.965663 9.952575 4.465575
58 1 9.860063 10.764575 6.732975
59 1 11.628663 4.991775 12.005975
60 1 12.474263 6.120575 14.237575
61 1 11.424762 7.739975 0.236575
62 1 12.502062 9.036975 2.057075
63 1 11.278362 7.734275 4.127775
64 1 12.374863 7.472875 8.278175
65 1 12.236763 8.623975 10.549675
66 1 11.063863 7.533075 12.427275
67 1 12.198163 8.801175 14.299775
68 1 11.350363 10.258875 0.238375
69 1 12.460463 10.007575 4.564275
70 1 12.297063 10.949775 6.864475
71 1 10.904063 9.649775 8.665675
72 1 12.429563 11.052975 10.480475
73 1 11.075963 9.977675 12.279575
74 1 12.313563 11.126375 14.168875
75 1 12.647963 12.461775 0.698975
76 1 11.179863 12.159175 4.961075
77 1 12.545563 13.394875 6.737975
78 1 11.122762 12.148575 8.671175
79 1 11.073263 12.421775 12.356475
80 1 12.817463 0.434075 8.421875
81 1 12.683463 2.796375 12.417775
82 1 13.472863 7.417875 12.242775
83 1 13.523363 9.653275 8.757075
84 1 13.523163 6.181775 10.039775
85 1 6.682363 5.034575 12.326475
86 1 11.458863 5.193875 7.906975
87 1 11.413163 5.246475 4.262675
88 1 8.490462 9.615275 8.700275
89 1 9.784863 11.050375 10.472175
90 1 8.515062 10.007175 12.448275
91 1 9.741362 11.380675 14.269875
92 1 10.127163 12.409975 0.603875
93 1 8.608063 12.228475 5.029275
94 1 8.651963 12.192575 8.649375
95 1 8.557662 12.420675 12.255175
96 1 11.541363 0.241375 0.381075
97 1 12.859663 1.476775 2.166675
98 1 11.632162 0.190475 4.008375
99 1 12.710463 1.335175 6.100275
100 1 10.230863 0.292575 8.291275
101 1 11.541363 1.769275 10.159475
102 1 11.519163 0.637075 12.509075
103 1 11.550763 2.885775 0.452175
104 1 12.726263 4.039575 2.254075
105 1 11.460163 2.764775 4.260575
106 1 12.764163 3.946075 6.054175
107 1 11.480363 2.719375 7.922875
108 1 12.823263 3.863475 9.878475
109 1 10.119362 2.760975 12.264675
110 1 11.120463 3.976075 14.222275
111 1 11.451063 5.286375 0.338975
112 1 12.575662 6.464375 2.389475
113 1 12.600163 6.597975 6.109775
114 1 8.522863 6.171875 10.239775
115 1 6.266162 5.052175 7.803075
116 1 7.622563 6.297675 5.985775
117 1 2.398763 6.186675 14.340875
118 1 1.106763 7.798375 0.426175
119 1 2.434162 9.108475 2.248775
120 1 1.302063 7.831675 4.099475
121 1 3.554662 8.692875 6.428575
122 1 2.251063 7.480775 8.327375
123 1 2.211763 8.770575 10.706975
124 1 0.926163 7.607575 12.475575
125 1 2.090763 8.714175 14.559075
126 1 1.194963 10.291375 0.382075
127 1 3.681363 11.189275 2.601375
128 1 2.470063 10.168575 4.590975
129 1 2.183463 11.074175 6.928175
130 1 1.008462 9.750375 8.735575
131 1 2.116963 11.144575 10.652875
132 1 0.888763 9.977975 12.383775
133 1 2.108163 11.114975 14.250475
134 1 2.418962 12.626175 0.703375
135 1 2.368463 13.370175 3.124775
136 1 1.128863 12.277775 5.138475
137 1 0.922963 12.342175 8.704975
138 1 0.907563 12.392975 12.427575
139 1 3.945863 0.155475 0.276175
140 1 5.117963 1.361275 2.026875
141 1 3.863063 0.145975 3.972875
142 1 1.650863 5.181475 12.145675
143 1 5.211963 1.324675 5.955975
144 1 3.433163 6.370975 10.179075
145 1 2.490662 6.378875 6.024475
146 1 0.109963 1.481275 5.984675
147 1 0.091163 4.048175 6.003775
148 1 0.166663 3.945875 10.016675
149 1 0.811363 6.376275 10.052175
150 1 1.111563 8.624075 6.452575
151 1 1.152663 11.305375 2.786375
152 1 1.275263 0.038775 0.298475
153 1 2.658163 1.346475 2.030075
154 1 1.346963 0.190575 4.010075
155 1 2.671263 1.486975 5.855475
156 1 0.133463 0.273275 8.279675
157 1 1.429363 1.596075 10.246575
158 1 1.431563 0.635875 12.538775
159 1 2.457363 1.816575 14.535975
160 1 1.357063 2.883775 0.464075
161 1 2.525263 4.060775 2.226075
162 1 1.283062 2.738175 4.086675
163 1 2.627963 3.958375 5.946275
164 1 1.505463 2.661975 7.926475
165 1 2.594963 4.034775 10.031875
166 1 0.168962 2.924675 12.200875
167 1 1.002163 4.066275 14.338275
168 1 1.212363 5.325475 0.413975
169 1 2.618863 6.565375 2.306375
170 1 1.250363 5.198775 4.089275
171 1 1.250063 5.127275 7.870275
172 1 13.460663 9.834375 12.286975
173 1 2.687663 0.367675 8.294475
174 1 3.922863 0.692875 12.734875
175 1 4.611263 10.980675 10.705975
176 1 3.433663 9.842875 12.538575
177 1 4.727563 11.308175 14.393475
178 1 4.940863 12.427975 0.671175
179 1 3.671763 12.249475 4.998775
180 1 3.496163 12.098675 8.706375
181 1 3.549463 12.354575 12.337375
182 1 6.520063 0.071575 0.214475
183 1 7.708663 1.392975 2.128275
184 1 6.492363 0.055475 3.923975
185 1 7.762863 1.354475 5.914475
186 1 5.228963 0.336875 8.412575
187 1 6.458562 1.495675 10.341375
188 1 6.373263 0.531575 12.784875
189 1 6.452162 2.626275 0.208775
190 1 7.669763 3.928975 2.155175
191 1 6.292363 2.668975 4.087775
192 1 7.554163 3.726175 5.990675
193 1 6.375962 2.506775 7.993775
194 1 7.651163 3.900075 9.903475
195 1 5.241362 2.780175 12.173075
196 1 6.195962 3.907775 14.388475
197 1 6.259063 5.121075 0.246375
198 1 7.541063 6.447575 2.171575
199 1 6.422063 5.156575 4.104075
200 1 3.439163 9.637375 8.798675
201 1 3.971663 1.816675 10.215375
202 1 4.681463 10.865575 6.905575
203 1 6.234363 11.358375 2.670175
204 1 3.829763 2.757475 0.293075
205 1 5.153063 3.912075 2.266275
206 1 3.806263 2.596075 3.948275
207 1 5.109063 3.932575 5.998975
208 1 3.989363 2.718875 7.866875
209 1 5.139963 3.910775 9.889475
210 1 2.727663 2.824575 12.242275
211 1 3.634163 3.963875 14.238575
212 1 3.771363 5.245775 0.337775
213 1 5.136163 6.364775 2.273075
214 1 3.934563 5.149975 4.076175
215 1 5.079163 6.505275 6.065475
216 1 3.808563 5.119575 7.920975
217 1 5.964463 6.204675 10.246075
218 1 4.181063 5.048875 11.996375
219 1 4.775562 6.155275 14.246375
220 1 3.609262 7.867475 0.427275
221 1 5.062463 9.005175 2.003875
222 1 3.871363 7.895575 4.102075
223 1 6.036963 8.834975 6.310075
224 1 4.683663 7.393475 8.301575
225 1 4.561863 8.525975 10.618975
226 1 3.381463 7.432775 12.551175
227 1 4.614063 8.736775 14.422875
228 1 3.584563 10.341075 0.297275
229 1 4.940362 10.112775 4.532175
230 1 13.609763 12.472375 12.361175
