Converted from struttt/Twin_Double_Asym_Inner0.42nm_Outer2.09nm_2L.vasp (Triclinic/Cu)

198 atoms
3 atom types
0.0 7.668573 xlo xhi
0.0 6.641179 ylo yhi
0.0 45.916667 zlo zhi
3.834287 0.000000 0.000000 xy xz yz

Masses

1 63.546
2 63.546
3 63.546

Atoms # atomic

1 1 0.000000 0.000000 0.000000
2 1 2.556191 0.000000 0.000000
3 1 5.112382 0.000000 0.000000
4 1 1.278095 2.213726 0.000000
5 1 3.834286 2.213726 0.000000
6 1 6.390478 2.213726 0.000000
7 1 2.556191 4.427453 0.000000
8 1 5.112382 4.427453 0.000000
9 1 7.668573 4.427453 0.000000
10 1 1.278095 0.737909 2.087121
11 1 3.834286 0.737909 2.087121
12 1 6.390478 0.737909 2.087121
13 1 2.556191 2.951635 2.087121
14 1 5.112382 2.951635 2.087121
15 1 7.668573 2.951635 2.087121
16 1 3.834287 5.165362 2.087121
17 1 6.390478 5.165362 2.087121
18 1 8.946669 5.165362 2.087121
19 1 2.556191 1.475818 4.174242
20 1 5.112382 1.475818 4.174242
21 1 7.668573 1.475818 4.174242
22 1 3.834287 3.689544 4.174242
23 1 6.390478 3.689544 4.174242
24 1 8.946669 3.689544 4.174242
25 1 5.112382 5.903270 4.174242
26 1 7.668573 5.903270 4.174242
27 1 10.224764 5.903270 4.174242
28 1 0.000000 0.000000 6.261364
29 1 2.556191 0.000000 6.261364
30 1 5.112382 0.000000 6.261364
31 1 1.278095 2.213726 6.261364
32 1 3.834286 2.213726 6.261364
33 1 6.390478 2.213726 6.261364
34 1 2.556191 4.427453 6.261364
35 1 5.112382 4.427453 6.261364
36 1 7.668573 4.427453 6.261364
37 1 1.278095 0.737909 8.348485
38 1 3.834286 0.737909 8.348485
39 1 6.390478 0.737909 8.348485
40 1 2.556191 2.951635 8.348485
41 1 5.112382 2.951635 8.348485
42 1 7.668573 2.951635 8.348485
43 1 3.834287 5.165362 8.348485
44 1 6.390478 5.165362 8.348485
45 1 8.946669 5.165362 8.348485
46 1 2.556191 1.475818 10.435606
47 1 5.112382 1.475818 10.435606
48 1 7.668573 1.475818 10.435606
49 1 3.834287 3.689544 10.435606
50 1 6.390478 3.689544 10.435606
51 1 8.946669 3.689544 10.435606
52 1 5.112382 5.903270 10.435606
53 1 7.668573 5.903270 10.435606
54 1 10.224764 5.903270 10.435606
55 1 0.000000 0.000000 12.522727
56 1 2.556191 0.000000 12.522727
57 1 5.112382 0.000000 12.522727
58 1 1.278095 2.213726 12.522727
59 1 3.834286 2.213726 12.522727
60 1 6.390478 2.213726 12.522727
61 1 2.556191 4.427453 12.522727
62 1 5.112382 4.427453 12.522727
63 1 7.668573 4.427453 12.522727
64 1 1.278095 0.737909 14.609849
65 1 3.834286 0.737909 14.609849
66 1 6.390478 0.737909 14.609849
67 1 2.556191 2.951635 14.609849
68 1 5.112382 2.951635 14.609849
69 1 7.668573 2.951635 14.609849
70 1 3.834287 5.165362 14.609849
71 1 6.390478 5.165362 14.609849
72 1 8.946669 5.165362 14.609849
73 1 2.556191 1.475818 16.696970
74 1 5.112382 1.475818 16.696970
75 1 7.668573 1.475818 16.696970
76 1 3.834287 3.689544 16.696970
77 1 6.390478 3.689544 16.696970
78 1 8.946669 3.689544 16.696970
79 1 5.112382 5.903270 16.696970
80 1 7.668573 5.903270 16.696970
81 1 10.224764 5.903270 16.696970
82 1 0.000000 0.000000 18.784091
83 1 2.556191 0.000000 18.784091
84 1 5.112382 0.000000 18.784091
85 1 1.278095 2.213726 18.784091
86 1 3.834286 2.213726 18.784091
87 1 6.390478 2.213726 18.784091
88 1 2.556191 4.427453 18.784091
89 1 5.112382 4.427453 18.784091
90 1 7.668573 4.427453 18.784091
91 1 2.556191 1.475818 20.871212
92 1 5.112382 1.475818 20.871212
93 1 7.668573 1.475818 20.871212
94 1 3.834287 3.689544 20.871212
95 1 6.390478 3.689544 20.871212
96 1 8.946669 3.689544 20.871212
97 1 5.112382 5.903270 20.871212
98 1 7.668573 5.903270 20.871212
99 1 10.224764 5.903270 20.871212
100 1 1.278095 0.737909 22.958333
101 1 3.834286 0.737909 22.958333
102 1 6.390478 0.737909 22.958333
103 1 2.556191 2.951635 22.958333
104 1 5.112382 2.951635 22.958333
105 1 7.668573 2.951635 22.958333
106 1 3.834287 5.165362 22.958333
107 1 6.390478 5.165362 22.958333
108 1 8.946669 5.165362 22.958333
109 1 2.556191 1.475818 25.045455
110 1 5.112382 1.475818 25.045455
111 1 7.668573 1.475818 25.045455
112 1 3.834287 3.689544 25.045455
113 1 6.390478 3.689544 25.045455
114 1 8.946669 3.689544 25.045455
115 1 5.112382 5.903270 25.045455
116 1 7.668573 5.903270 25.045455
117 1 10.224764 5.903270 25.045455
118 1 0.000000 0.000000 27.132576
119 1 2.556191 0.000000 27.132576
120 1 5.112382 0.000000 27.132576
121 1 1.278095 2.213726 27.132576
122 1 3.834286 2.213726 27.132576
123 1 6.390478 2.213726 27.132576
124 1 2.556191 4.427453 27.132576
125 1 5.112382 4.427453 27.132576
126 1 7.668573 4.427453 27.132576
127 1 1.278095 0.737909 29.219697
128 1 3.834286 0.737909 29.219697
129 1 6.390478 0.737909 29.219697
130 1 2.556191 2.951635 29.219697
131 1 5.112382 2.951635 29.219697
132 1 7.668573 2.951635 29.219697
133 1 3.834287 5.165362 29.219697
134 1 6.390478 5.165362 29.219697
135 1 8.946669 5.165362 29.219697
136 1 2.556191 1.475818 31.306818
137 1 5.112382 1.475818 31.306818
138 1 7.668573 1.475818 31.306818
139 1 3.834287 3.689544 31.306818
140 1 6.390478 3.689544 31.306818
141 1 8.946669 3.689544 31.306818
142 1 5.112382 5.903270 31.306818
143 1 7.668573 5.903270 31.306818
144 1 10.224764 5.903270 31.306818
145 1 0.000000 0.000000 33.393940
146 1 2.556191 0.000000 33.393940
147 1 5.112382 0.000000 33.393940
148 1 1.278095 2.213726 33.393940
149 1 3.834286 2.213726 33.393940
150 1 6.390478 2.213726 33.393940
151 1 2.556191 4.427453 33.393940
152 1 5.112382 4.427453 33.393940
153 1 7.668573 4.427453 33.393940
154 1 1.278095 0.737909 35.481061
155 1 3.834286 0.737909 35.481061
156 1 6.390478 0.737909 35.481061
157 1 2.556191 2.951635 35.481061
158 1 5.112382 2.951635 35.481061
159 1 7.668573 2.951635 35.481061
160 1 3.834287 5.165362 35.481061
161 1 6.390478 5.165362 35.481061
162 1 8.946669 5.165362 35.481061
163 1 2.556191 1.475818 37.568182
164 1 5.112382 1.475818 37.568182
165 1 7.668573 1.475818 37.568182
166 1 3.834287 3.689544 37.568182
167 1 6.390478 3.689544 37.568182
168 1 8.946669 3.689544 37.568182
169 1 5.112382 5.903270 37.568182
170 1 7.668573 5.903270 37.568182
171 1 10.224764 5.903270 37.568182
172 1 0.000000 0.000000 39.655303
173 1 2.556191 0.000000 39.655303
174 1 5.112382 0.000000 39.655303
175 1 1.278095 2.213726 39.655303
176 1 3.834286 2.213726 39.655303
177 1 6.390478 2.213726 39.655303
178 1 2.556191 4.427453 39.655303
179 1 5.112382 4.427453 39.655303
180 1 7.668573 4.427453 39.655303
181 1 1.278095 0.737909 41.742425
182 1 3.834286 0.737909 41.742425
183 1 6.390478 0.737909 41.742425
184 1 2.556191 2.951635 41.742425
185 1 5.112382 2.951635 41.742425
186 1 7.668573 2.951635 41.742425
187 1 3.834287 5.165362 41.742425
188 1 6.390478 5.165362 41.742425
189 1 8.946669 5.165362 41.742425
190 1 2.556191 1.475818 43.829545
191 1 5.112382 1.475818 43.829545
192 1 7.668573 1.475818 43.829545
193 1 3.834287 3.689544 43.829545
194 1 6.390478 3.689544 43.829545
195 1 8.946669 3.689544 43.829545
196 1 5.112382 5.903270 43.829545
197 1 7.668573 5.903270 43.829545
198 1 10.224764 5.903270 43.829545
