108
Lattice="10.62339115 0.0 0.0 0.0 10.62339115 0.0 0.0 0.0 10.62339115" Properties=species:S:1:pos:R:3:forces:R:3 virial="97.18436159917724 0.0 -0.0 0.0 97.18436159917724 -0.0 -0.0 -0.0 97.18436159917724" label=1 energy=-399.12353064 stress="-0.08106005033025133 -0.0 0.0 -0.0 -0.08106005033025133 0.0 0.0 0.0 -0.08106005033025133" free_energy=-399.13473112 pbc="T T T"
Cu       0.00931140       0.00931140       0.00931140       0.00000000       0.00000000       0.00000000
Cu       0.00931140       0.00931140       3.55044175       0.00000000      -0.00000000      -0.00000000
Cu       0.00931140       3.55044175       0.00931140      -0.00000000      -0.00000000       0.00000000
Cu       0.00931140       3.55044175       3.55044175       0.00000000       0.00000000       0.00000000
Cu       3.55044175       0.00931140       0.00931140      -0.00000000      -0.00000000      -0.00000000
Cu       3.55044175       0.00931140       3.55044175      -0.00000000      -0.00000000      -0.00000000
Cu       3.55044175       3.55044175       0.00931140       0.00000000       0.00000000       0.00000000
Cu       3.55044175       3.55044175       3.55044175       0.00000000       0.00000000       0.00000000
Cu       0.00931140       1.77987652       1.77987652       0.00000000       0.00000000      -0.00000000
Cu       3.55044175       1.77987652       1.77987652      -0.00000000      -0.00000000      -0.00000000
Cu       1.77987652       0.00931140       1.77987652       0.00000000      -0.00000000       0.00000000
Cu       1.77987652       3.55044175       1.77987652      -0.00000000       0.00000000      -0.00000000
Cu       1.77987652       1.77987652       0.00931140       0.00000000       0.00000000       0.00000000
Cu       1.77987652       1.77987652       3.55044175       0.00000000      -0.00000000       0.00000000
Cu       7.09157210       0.00931140       0.00931140      -0.00000000      -0.00000000      -0.00000000
Cu       7.09157210       0.00931140       3.55044175       0.00000000      -0.00000000      -0.00000000
Cu       7.09157210       3.55044175       0.00931140      -0.00000000      -0.00000000      -0.00000000
Cu       7.09157210       3.55044175       3.55044175       0.00000000       0.00000000      -0.00000000
Cu       7.09157210       1.77987652       1.77987652       0.00000000      -0.00000000      -0.00000000
Cu       5.32100698       0.00931140       1.77987652      -0.00000000      -0.00000000      -0.00000000
Cu       5.32100698       3.55044175       1.77987652       0.00000000       0.00000000       0.00000000
Cu       8.86213733       0.00931140       1.77987652      -0.00000000       0.00000000      -0.00000000
Cu       8.86213733       3.55044175       1.77987652      -0.00000000       0.00000000       0.00000000
Cu       5.32100698       1.77987652       0.00931140      -0.00000000      -0.00000000      -0.00000000
Cu       5.32100698       1.77987652       3.55044175       0.00000000       0.00000000       0.00000000
Cu       8.86213733       1.77987652       0.00931140      -0.00000000      -0.00000000      -0.00000000
Cu       8.86213733       1.77987652       3.55044175      -0.00000000      -0.00000000      -0.00000000
Cu       0.00931140       7.09157210       0.00931140      -0.00000000      -0.00000000      -0.00000000
Cu       0.00931140       7.09157210       3.55044175      -0.00000000       0.00000000      -0.00000000
Cu       3.55044175       7.09157210       0.00931140      -0.00000000      -0.00000000       0.00000000
Cu       3.55044175       7.09157210       3.55044175       0.00000000      -0.00000000      -0.00000000
Cu       0.00931140       5.32100698       1.77987652      -0.00000000      -0.00000000      -0.00000000
Cu       0.00931140       8.86213733       1.77987652      -0.00000000      -0.00000000       0.00000000
Cu       3.55044175       5.32100698       1.77987652       0.00000000       0.00000000      -0.00000000
Cu       3.55044175       8.86213733       1.77987652      -0.00000000      -0.00000000      -0.00000000
Cu       1.77987652       7.09157210       1.77987652      -0.00000000      -0.00000000      -0.00000000
Cu       1.77987652       5.32100698       0.00931140      -0.00000000      -0.00000000       0.00000000
Cu       1.77987652       5.32100698       3.55044175       0.00000000       0.00000000      -0.00000000
Cu       1.77987652       8.86213733       0.00931140      -0.00000000      -0.00000000      -0.00000000
Cu       1.77987652       8.86213733       3.55044175      -0.00000000       0.00000000      -0.00000000
Cu       7.09157210       7.09157210       0.00931140       0.00000000       0.00000000       0.00000000
Cu       7.09157210       7.09157210       3.55044175      -0.00000000       0.00000000       0.00000000
Cu       7.09157210       5.32100698       1.77987652       0.00000000      -0.00000000      -0.00000000
Cu       7.09157210       8.86213733       1.77987652      -0.00000000       0.00000000      -0.00000000
Cu       5.32100698       7.09157210       1.77987652       0.00000000       0.00000000       0.00000000
Cu       8.86213733       7.09157210       1.77987652       0.00000000      -0.00000000       0.00000000
Cu       5.32100698       5.32100698       0.00931140       0.00000000       0.00000000       0.00000000
Cu       5.32100698       5.32100698       3.55044175       0.00000000       0.00000000       0.00000000
Cu       5.32100698       8.86213733       0.00931140      -0.00000000      -0.00000000      -0.00000000
Cu       5.32100698       8.86213733       3.55044175       0.00000000      -0.00000000      -0.00000000
Cu       8.86213733       5.32100698       0.00931140      -0.00000000      -0.00000000      -0.00000000
Cu       8.86213733       5.32100698       3.55044175      -0.00000000       0.00000000       0.00000000
Cu       8.86213733       8.86213733       0.00931140       0.00000000       0.00000000       0.00000000
Cu       8.86213733       8.86213733       3.55044175       0.00000000      -0.00000000       0.00000000
Cu       0.00931140       0.00931140       7.09157210       0.00000000       0.00000000       0.00000000
Cu       0.00931140       3.55044175       7.09157210       0.00000000      -0.00000000      -0.00000000
Cu       3.55044175       0.00931140       7.09157210       0.00000000      -0.00000000      -0.00000000
Cu       3.55044175       3.55044175       7.09157210       0.00000000       0.00000000       0.00000000
Cu       0.00931140       1.77987652       5.32100698       0.00000000       0.00000000       0.00000000
Cu       0.00931140       1.77987652       8.86213733      -0.00000000       0.00000000       0.00000000
Cu       3.55044175       1.77987652       5.32100698       0.00000000       0.00000000      -0.00000000
Cu       3.55044175       1.77987652       8.86213733      -0.00000000      -0.00000000       0.00000000
Cu       1.77987652       0.00931140       5.32100698       0.00000000       0.00000000      -0.00000000
Cu       1.77987652       0.00931140       8.86213733      -0.00000000       0.00000000       0.00000000
Cu       1.77987652       3.55044175       5.32100698       0.00000000       0.00000000       0.00000000
Cu       1.77987652       3.55044175       8.86213733       0.00000000       0.00000000      -0.00000000
Cu       1.77987652       1.77987652       7.09157210       0.00000000       0.00000000       0.00000000
Cu       7.09157210       0.00931140       7.09157210      -0.00000000      -0.00000000       0.00000000
Cu       7.09157210       3.55044175       7.09157210       0.00000000      -0.00000000      -0.00000000
Cu       7.09157210       1.77987652       5.32100698       0.00000000      -0.00000000      -0.00000000
Cu       7.09157210       1.77987652       8.86213733      -0.00000000      -0.00000000      -0.00000000
Cu       5.32100698       0.00931140       5.32100698      -0.00000000      -0.00000000      -0.00000000
Cu       5.32100698       0.00931140       8.86213733      -0.00000000      -0.00000000      -0.00000000
Cu       5.32100698       3.55044175       5.32100698       0.00000000       0.00000000       0.00000000
Cu       5.32100698       3.55044175       8.86213733      -0.00000000       0.00000000       0.00000000
Cu       8.86213733       0.00931140       5.32100698       0.00000000       0.00000000       0.00000000
Cu       8.86213733       0.00931140       8.86213733      -0.00000000       0.00000000       0.00000000
Cu       8.86213733       3.55044175       5.32100698       0.00000000      -0.00000000      -0.00000000
Cu       8.86213733       3.55044175       8.86213733      -0.00000000      -0.00000000      -0.00000000
Cu       5.32100698       1.77987652       7.09157210       0.00000000       0.00000000      -0.00000000
Cu       8.86213733       1.77987652       7.09157210      -0.00000000      -0.00000000       0.00000000
Cu       0.00931140       7.09157210       7.09157210       0.00000000       0.00000000      -0.00000000
Cu       3.55044175       7.09157210       7.09157210       0.00000000      -0.00000000      -0.00000000
Cu       0.00931140       5.32100698       5.32100698      -0.00000000      -0.00000000      -0.00000000
Cu       0.00931140       5.32100698       8.86213733      -0.00000000      -0.00000000      -0.00000000
Cu       0.00931140       8.86213733       5.32100698       0.00000000       0.00000000       0.00000000
Cu       0.00931140       8.86213733       8.86213733      -0.00000000       0.00000000       0.00000000
Cu       3.55044175       5.32100698       5.32100698       0.00000000       0.00000000       0.00000000
Cu       3.55044175       5.32100698       8.86213733       0.00000000       0.00000000      -0.00000000
Cu       3.55044175       8.86213733       5.32100698      -0.00000000      -0.00000000      -0.00000000
Cu       3.55044175       8.86213733       8.86213733      -0.00000000      -0.00000000      -0.00000000
Cu       1.77987652       7.09157210       5.32100698       0.00000000      -0.00000000      -0.00000000
Cu       1.77987652       7.09157210       8.86213733      -0.00000000      -0.00000000       0.00000000
Cu       1.77987652       5.32100698       7.09157210      -0.00000000      -0.00000000      -0.00000000
Cu       1.77987652       8.86213733       7.09157210       0.00000000      -0.00000000      -0.00000000
Cu       7.09157210       7.09157210       7.09157210       0.00000000      -0.00000000       0.00000000
Cu       7.09157210       5.32100698       5.32100698       0.00000000       0.00000000       0.00000000
Cu       7.09157210       5.32100698       8.86213733      -0.00000000      -0.00000000       0.00000000
Cu       7.09157210       8.86213733       5.32100698       0.00000000       0.00000000       0.00000000
Cu       7.09157210       8.86213733       8.86213733      -0.00000000       0.00000000       0.00000000
Cu       5.32100698       7.09157210       5.32100698      -0.00000000       0.00000000       0.00000000
Cu       5.32100698       7.09157210       8.86213733      -0.00000000       0.00000000       0.00000000
Cu       8.86213733       7.09157210       5.32100698       0.00000000       0.00000000      -0.00000000
Cu       8.86213733       7.09157210       8.86213733      -0.00000000      -0.00000000       0.00000000
Cu       5.32100698       5.32100698       7.09157210       0.00000000       0.00000000      -0.00000000
Cu       5.32100698       8.86213733       7.09157210      -0.00000000      -0.00000000       0.00000000
Cu       8.86213733       5.32100698       7.09157210       0.00000000      -0.00000000      -0.00000000
Cu       8.86213733       8.86213733       7.09157210       0.00000000       0.00000000      -0.00000000
108
Lattice="10.69820623 0.0 0.0 0.0 10.69820623 0.0 0.0 0.0 10.69820623" Properties=species:S:1:pos:R:3:forces:R:3 virial="68.38520325406812 0.0 -0.0 0.0 68.38520325406812 0.0 -0.0 0.0 68.38520325406812" label=2 energy=-400.90966548 stress="-0.055850780337388384 -0.0 0.0 -0.0 -0.055850780337388384 -0.0 0.0 -0.0 -0.055850780337388384" free_energy=-400.92190051 pbc="T T T"
Cu       0.00937698       0.00937698       0.00937698       0.00000000       0.00000000       0.00000000
Cu       0.00937698       0.00937698       3.57544569      -0.00000000      -0.00000000      -0.00000000
Cu       0.00937698       3.57544569       0.00937698      -0.00000000       0.00000000      -0.00000000
Cu       0.00937698       3.57544569       3.57544569      -0.00000000       0.00000000       0.00000000
Cu       3.57544569       0.00937698       0.00937698       0.00000000       0.00000000      -0.00000000
Cu       3.57544569       0.00937698       3.57544569      -0.00000000       0.00000000       0.00000000
Cu       3.57544569       3.57544569       0.00937698      -0.00000000      -0.00000000       0.00000000
Cu       3.57544569       3.57544569       3.57544569      -0.00000000      -0.00000000       0.00000000
Cu       0.00937698       1.79241128       1.79241128       0.00000000      -0.00000000       0.00000000
Cu       3.57544569       1.79241128       1.79241128       0.00000000      -0.00000000       0.00000000
Cu       1.79241128       0.00937698       1.79241128       0.00000000      -0.00000000       0.00000000
Cu       1.79241128       3.57544569       1.79241128       0.00000000      -0.00000000       0.00000000
Cu       1.79241128       1.79241128       0.00937698       0.00000000      -0.00000000       0.00000000
Cu       1.79241128       1.79241128       3.57544569      -0.00000000      -0.00000000       0.00000000
Cu       7.14151439       0.00937698       0.00937698      -0.00000000       0.00000000      -0.00000000
Cu       7.14151439       0.00937698       3.57544569      -0.00000000       0.00000000       0.00000000
Cu       7.14151439       3.57544569       0.00937698       0.00000000      -0.00000000      -0.00000000
Cu       7.14151439       3.57544569       3.57544569       0.00000000       0.00000000      -0.00000000
Cu       7.14151439       1.79241128       1.79241128       0.00000000       0.00000000      -0.00000000
Cu       5.35848009       0.00937698       1.79241128       0.00000000       0.00000000      -0.00000000
Cu       5.35848009       3.57544569       1.79241128       0.00000000      -0.00000000      -0.00000000
Cu       8.92454880       0.00937698       1.79241128      -0.00000000      -0.00000000       0.00000000
Cu       8.92454880       3.57544569       1.79241128       0.00000000       0.00000000      -0.00000000
Cu       5.35848009       1.79241128       0.00937698       0.00000000      -0.00000000      -0.00000000
Cu       5.35848009       1.79241128       3.57544569      -0.00000000       0.00000000      -0.00000000
Cu       8.92454880       1.79241128       0.00937698      -0.00000000       0.00000000      -0.00000000
Cu       8.92454880       1.79241128       3.57544569      -0.00000000       0.00000000       0.00000000
Cu       0.00937698       7.14151439       0.00937698       0.00000000       0.00000000      -0.00000000
Cu       0.00937698       7.14151439       3.57544569      -0.00000000       0.00000000       0.00000000
Cu       3.57544569       7.14151439       0.00937698      -0.00000000       0.00000000      -0.00000000
Cu       3.57544569       7.14151439       3.57544569      -0.00000000       0.00000000       0.00000000
Cu       0.00937698       5.35848009       1.79241128       0.00000000       0.00000000      -0.00000000
Cu       0.00937698       8.92454880       1.79241128       0.00000000      -0.00000000       0.00000000
Cu       3.57544569       5.35848009       1.79241128       0.00000000      -0.00000000       0.00000000
Cu       3.57544569       8.92454880       1.79241128      -0.00000000       0.00000000      -0.00000000
Cu       1.79241128       7.14151439       1.79241128       0.00000000       0.00000000      -0.00000000
Cu       1.79241128       5.35848009       0.00937698      -0.00000000       0.00000000      -0.00000000
Cu       1.79241128       5.35848009       3.57544569      -0.00000000       0.00000000      -0.00000000
Cu       1.79241128       8.92454880       0.00937698       0.00000000       0.00000000      -0.00000000
Cu       1.79241128       8.92454880       3.57544569      -0.00000000       0.00000000      -0.00000000
Cu       7.14151439       7.14151439       0.00937698       0.00000000       0.00000000       0.00000000
Cu       7.14151439       7.14151439       3.57544569      -0.00000000      -0.00000000       0.00000000
Cu       7.14151439       5.35848009       1.79241128       0.00000000      -0.00000000       0.00000000
Cu       7.14151439       8.92454880       1.79241128      -0.00000000      -0.00000000       0.00000000
Cu       5.35848009       7.14151439       1.79241128      -0.00000000      -0.00000000       0.00000000
Cu       8.92454880       7.14151439       1.79241128       0.00000000      -0.00000000       0.00000000
Cu       5.35848009       5.35848009       0.00937698       0.00000000       0.00000000       0.00000000
Cu       5.35848009       5.35848009       3.57544569       0.00000000      -0.00000000       0.00000000
Cu       5.35848009       8.92454880       0.00937698      -0.00000000       0.00000000      -0.00000000
Cu       5.35848009       8.92454880       3.57544569      -0.00000000       0.00000000      -0.00000000
Cu       8.92454880       5.35848009       0.00937698      -0.00000000      -0.00000000      -0.00000000
Cu       8.92454880       5.35848009       3.57544569      -0.00000000       0.00000000       0.00000000
Cu       8.92454880       8.92454880       0.00937698       0.00000000       0.00000000       0.00000000
Cu       8.92454880       8.92454880       3.57544569      -0.00000000      -0.00000000       0.00000000
Cu       0.00937698       0.00937698       7.14151439      -0.00000000      -0.00000000      -0.00000000
Cu       0.00937698       3.57544569       7.14151439       0.00000000      -0.00000000       0.00000000
Cu       3.57544569       0.00937698       7.14151439       0.00000000      -0.00000000      -0.00000000
Cu       3.57544569       3.57544569       7.14151439      -0.00000000      -0.00000000      -0.00000000
Cu       0.00937698       1.79241128       5.35848009       0.00000000      -0.00000000      -0.00000000
Cu       0.00937698       1.79241128       8.92454880      -0.00000000      -0.00000000      -0.00000000
Cu       3.57544569       1.79241128       5.35848009       0.00000000       0.00000000       0.00000000
Cu       3.57544569       1.79241128       8.92454880      -0.00000000       0.00000000       0.00000000
Cu       1.79241128       0.00937698       5.35848009       0.00000000       0.00000000       0.00000000
Cu       1.79241128       0.00937698       8.92454880      -0.00000000       0.00000000       0.00000000
Cu       1.79241128       3.57544569       5.35848009       0.00000000      -0.00000000       0.00000000
Cu       1.79241128       3.57544569       8.92454880      -0.00000000      -0.00000000      -0.00000000
Cu       1.79241128       1.79241128       7.14151439      -0.00000000      -0.00000000      -0.00000000
Cu       7.14151439       0.00937698       7.14151439       0.00000000      -0.00000000       0.00000000
Cu       7.14151439       3.57544569       7.14151439      -0.00000000      -0.00000000      -0.00000000
Cu       7.14151439       1.79241128       5.35848009      -0.00000000       0.00000000      -0.00000000
Cu       7.14151439       1.79241128       8.92454880       0.00000000       0.00000000       0.00000000
Cu       5.35848009       0.00937698       5.35848009      -0.00000000       0.00000000      -0.00000000
Cu       5.35848009       0.00937698       8.92454880       0.00000000       0.00000000      -0.00000000
Cu       5.35848009       3.57544569       5.35848009       0.00000000      -0.00000000      -0.00000000
Cu       5.35848009       3.57544569       8.92454880      -0.00000000       0.00000000       0.00000000
Cu       8.92454880       0.00937698       5.35848009       0.00000000      -0.00000000       0.00000000
Cu       8.92454880       0.00937698       8.92454880      -0.00000000       0.00000000      -0.00000000
Cu       8.92454880       3.57544569       5.35848009      -0.00000000      -0.00000000      -0.00000000
Cu       8.92454880       3.57544569       8.92454880       0.00000000       0.00000000       0.00000000
Cu       5.35848009       1.79241128       7.14151439       0.00000000       0.00000000      -0.00000000
Cu       8.92454880       1.79241128       7.14151439       0.00000000      -0.00000000       0.00000000
Cu       0.00937698       7.14151439       7.14151439       0.00000000      -0.00000000      -0.00000000
Cu       3.57544569       7.14151439       7.14151439       0.00000000       0.00000000       0.00000000
Cu       0.00937698       5.35848009       5.35848009      -0.00000000      -0.00000000      -0.00000000
Cu       0.00937698       5.35848009       8.92454880       0.00000000       0.00000000       0.00000000
Cu       0.00937698       8.92454880       5.35848009       0.00000000       0.00000000      -0.00000000
Cu       0.00937698       8.92454880       8.92454880      -0.00000000       0.00000000      -0.00000000
Cu       3.57544569       5.35848009       5.35848009       0.00000000      -0.00000000       0.00000000
Cu       3.57544569       5.35848009       8.92454880      -0.00000000      -0.00000000      -0.00000000
Cu       3.57544569       8.92454880       5.35848009      -0.00000000      -0.00000000      -0.00000000
Cu       3.57544569       8.92454880       8.92454880       0.00000000       0.00000000       0.00000000
Cu       1.79241128       7.14151439       5.35848009      -0.00000000      -0.00000000      -0.00000000
Cu       1.79241128       7.14151439       8.92454880       0.00000000       0.00000000      -0.00000000
Cu       1.79241128       5.35848009       7.14151439       0.00000000      -0.00000000       0.00000000
Cu       1.79241128       8.92454880       7.14151439      -0.00000000      -0.00000000      -0.00000000
Cu       7.14151439       7.14151439       7.14151439      -0.00000000      -0.00000000      -0.00000000
Cu       7.14151439       5.35848009       5.35848009      -0.00000000      -0.00000000      -0.00000000
Cu       7.14151439       5.35848009       8.92454880       0.00000000       0.00000000       0.00000000
Cu       7.14151439       8.92454880       5.35848009       0.00000000      -0.00000000       0.00000000
Cu       7.14151439       8.92454880       8.92454880      -0.00000000       0.00000000      -0.00000000
Cu       5.35848009       7.14151439       5.35848009       0.00000000      -0.00000000       0.00000000
Cu       5.35848009       7.14151439       8.92454880      -0.00000000      -0.00000000      -0.00000000
Cu       8.92454880       7.14151439       5.35848009       0.00000000      -0.00000000      -0.00000000
Cu       8.92454880       7.14151439       8.92454880      -0.00000000       0.00000000      -0.00000000
Cu       5.35848009       5.35848009       7.14151439      -0.00000000      -0.00000000      -0.00000000
Cu       5.35848009       8.92454880       7.14151439       0.00000000       0.00000000       0.00000000
Cu       8.92454880       5.35848009       7.14151439       0.00000000      -0.00000000      -0.00000000
Cu       8.92454880       8.92454880       7.14151439      -0.00000000      -0.00000000      -0.00000000
108
Lattice="10.77198929 0.0 0.0 0.0 10.77198929 0.0 0.0 0.0 10.77198929" Properties=species:S:1:pos:R:3:forces:R:3 virial="41.84893931160483 -0.0 0.0 -0.0 41.84893931160483 -0.0 0.0 -0.0 41.84893931160483" label=3 energy=-402.08895167 stress="-0.0334808685781567 0.0 -0.0 0.0 -0.0334808685781567 0.0 -0.0 0.0 -0.0334808685781567" free_energy=-402.10223802 pbc="T T T"
Cu       0.00944165       0.00944165       0.00944165      -0.00000000      -0.00000000      -0.00000000
Cu       0.00944165       0.00944165       3.60010471      -0.00000000      -0.00000000      -0.00000000
Cu       0.00944165       3.60010471       0.00944165       0.00000000       0.00000000      -0.00000000
Cu       0.00944165       3.60010471       3.60010471       0.00000000       0.00000000       0.00000000
Cu       3.60010471       0.00944165       0.00944165      -0.00000000       0.00000000      -0.00000000
Cu       3.60010471       0.00944165       3.60010471       0.00000000       0.00000000       0.00000000
Cu       3.60010471       3.60010471       0.00944165      -0.00000000       0.00000000      -0.00000000
Cu       3.60010471       3.60010471       3.60010471      -0.00000000      -0.00000000      -0.00000000
Cu       0.00944165       1.80477313       1.80477313      -0.00000000       0.00000000       0.00000000
Cu       3.60010471       1.80477313       1.80477313      -0.00000000      -0.00000000      -0.00000000
Cu       1.80477313       0.00944165       1.80477313      -0.00000000      -0.00000000      -0.00000000
Cu       1.80477313       3.60010471       1.80477313      -0.00000000       0.00000000       0.00000000
Cu       1.80477313       1.80477313       0.00944165      -0.00000000      -0.00000000      -0.00000000
Cu       1.80477313       1.80477313       3.60010471      -0.00000000      -0.00000000      -0.00000000
Cu       7.19076777       0.00944165       0.00944165       0.00000000       0.00000000      -0.00000000
Cu       7.19076777       0.00944165       3.60010471       0.00000000       0.00000000       0.00000000
Cu       7.19076777       3.60010471       0.00944165      -0.00000000       0.00000000      -0.00000000
Cu       7.19076777       3.60010471       3.60010471       0.00000000      -0.00000000       0.00000000
Cu       7.19076777       1.80477313       1.80477313       0.00000000       0.00000000       0.00000000
Cu       5.39543619       0.00944165       1.80477313       0.00000000       0.00000000       0.00000000
Cu       5.39543619       3.60010471       1.80477313      -0.00000000      -0.00000000      -0.00000000
Cu       8.98609935       0.00944165       1.80477313      -0.00000000       0.00000000       0.00000000
Cu       8.98609935       3.60010471       1.80477313       0.00000000       0.00000000      -0.00000000
Cu       5.39543619       1.80477313       0.00944165      -0.00000000       0.00000000      -0.00000000
Cu       5.39543619       1.80477313       3.60010471       0.00000000      -0.00000000       0.00000000
Cu       8.98609935       1.80477313       0.00944165       0.00000000       0.00000000      -0.00000000
Cu       8.98609935       1.80477313       3.60010471       0.00000000      -0.00000000       0.00000000
Cu       0.00944165       7.19076777       0.00944165      -0.00000000       0.00000000      -0.00000000
Cu       0.00944165       7.19076777       3.60010471       0.00000000      -0.00000000       0.00000000
Cu       3.60010471       7.19076777       0.00944165       0.00000000       0.00000000      -0.00000000
Cu       3.60010471       7.19076777       3.60010471       0.00000000       0.00000000       0.00000000
Cu       0.00944165       5.39543619       1.80477313       0.00000000       0.00000000       0.00000000
Cu       0.00944165       8.98609935       1.80477313      -0.00000000      -0.00000000      -0.00000000
Cu       3.60010471       5.39543619       1.80477313      -0.00000000       0.00000000       0.00000000
Cu       3.60010471       8.98609935       1.80477313       0.00000000       0.00000000       0.00000000
Cu       1.80477313       7.19076777       1.80477313       0.00000000       0.00000000       0.00000000
Cu       1.80477313       5.39543619       0.00944165       0.00000000       0.00000000      -0.00000000
Cu       1.80477313       5.39543619       3.60010471       0.00000000      -0.00000000       0.00000000
Cu       1.80477313       8.98609935       0.00944165      -0.00000000       0.00000000      -0.00000000
Cu       1.80477313       8.98609935       3.60010471       0.00000000       0.00000000       0.00000000
Cu       7.19076777       7.19076777       0.00944165      -0.00000000       0.00000000      -0.00000000
Cu       7.19076777       7.19076777       3.60010471      -0.00000000      -0.00000000      -0.00000000
Cu       7.19076777       5.39543619       1.80477313      -0.00000000      -0.00000000      -0.00000000
Cu       7.19076777       8.98609935       1.80477313      -0.00000000       0.00000000       0.00000000
Cu       5.39543619       7.19076777       1.80477313      -0.00000000       0.00000000       0.00000000
Cu       8.98609935       7.19076777       1.80477313      -0.00000000      -0.00000000      -0.00000000
Cu       5.39543619       5.39543619       0.00944165      -0.00000000       0.00000000      -0.00000000
Cu       5.39543619       5.39543619       3.60010471      -0.00000000      -0.00000000      -0.00000000
Cu       5.39543619       8.98609935       0.00944165       0.00000000       0.00000000      -0.00000000
Cu       5.39543619       8.98609935       3.60010471       0.00000000       0.00000000       0.00000000
Cu       8.98609935       5.39543619       0.00944165      -0.00000000       0.00000000      -0.00000000
Cu       8.98609935       5.39543619       3.60010471       0.00000000       0.00000000       0.00000000
Cu       8.98609935       8.98609935       0.00944165      -0.00000000      -0.00000000      -0.00000000
Cu       8.98609935       8.98609935       3.60010471      -0.00000000      -0.00000000      -0.00000000
Cu       0.00944165       0.00944165       7.19076777       0.00000000      -0.00000000       0.00000000
Cu       0.00944165       3.60010471       7.19076777      -0.00000000      -0.00000000      -0.00000000
Cu       3.60010471       0.00944165       7.19076777      -0.00000000       0.00000000       0.00000000
Cu       3.60010471       3.60010471       7.19076777       0.00000000      -0.00000000       0.00000000
Cu       0.00944165       1.80477313       5.39543619      -0.00000000      -0.00000000       0.00000000