108
Lattice="10.6233911493283 0.0 0.0 0.0 10.6233911493283 0.0 0.0 0.0 10.6233911493283" Properties=species:S:1:pos:R:3:forces:R:3 virial="99.40197044991679 2.046118829230746e-14 -2.6884373760741488e-14 2.046118829230746e-14 99.40197044991753 -4.407434945889368e-14 -2.6884373760741488e-14 -4.407434945889368e-14 99.40197044991753" label=1 energy=-398.885067590671 stress="-0.08290972535640037 -1.7066376995368974e-17 2.2423861768464163e-17 -1.7066376995368974e-17 -0.082909725356401 3.676176832671578e-17 2.2423861768464163e-17 3.676176832671578e-17 -0.082909725356401" free_energy=-398.885067590671 pbc="T T T"
Cu   0.00931135   0.00931135   0.00931135  -0.00000000  -0.00000000  -0.00000000
Cu   0.00931135   0.00931135   3.55044000  -0.00000000  -0.00000000  -0.00000000
Cu   0.00931135   3.55044000   0.00931135  -0.00000000  -0.00000000  -0.00000000
Cu   0.00931135   3.55044000   3.55044000  -0.00000000  -0.00000000  -0.00000000
Cu   3.55044000   0.00931135   0.00931135  -0.00000000  -0.00000000  -0.00000000
Cu   3.55044000   0.00931135   3.55044000  -0.00000000  -0.00000000  -0.00000000
Cu   3.55044000   3.55044000   0.00931135  -0.00000000  -0.00000000  -0.00000000
Cu   3.55044000   3.55044000   3.55044000  -0.00000000  -0.00000000  -0.00000000
Cu   0.00931135   1.77988000   1.77988000  -0.00000000  -0.00000000  -0.00000000
Cu   3.55044000   1.77988000   1.77988000  -0.00000000  -0.00000000  -0.00000000
Cu   1.77988000   0.00931135   1.77988000  -0.00000000  -0.00000000  -0.00000000
Cu   1.77988000   3.55044000   1.77988000  -0.00000000  -0.00000000  -0.00000000
Cu   1.77988000   1.77988000   0.00931135  -0.00000000  -0.00000000  -0.00000000
Cu   1.77988000   1.77988000   3.55044000  -0.00000000  -0.00000000  -0.00000000
Cu   7.09157000   0.00931135   0.00931135   0.00000000  -0.00000000  -0.00000000
Cu   7.09157000   0.00931135   3.55044000   0.00000000  -0.00000000  -0.00000000
Cu   7.09157000   3.55044000   0.00931135   0.00000000  -0.00000000  -0.00000000
Cu   7.09157000   3.55044000   3.55044000   0.00000000  -0.00000000  -0.00000000
Cu   7.09157000   1.77988000   1.77988000   0.00000000  -0.00000000  -0.00000000
Cu   5.32101000   0.00931135   1.77988000   0.00000000  -0.00000000  -0.00000000
Cu   5.32101000   3.55044000   1.77988000   0.00000000  -0.00000000  -0.00000000
Cu   8.86214000   0.00931135   1.77988000   0.00000000  -0.00000000  -0.00000000
Cu   8.86214000   3.55044000   1.77988000   0.00000000  -0.00000000  -0.00000000
Cu   5.32101000   1.77988000   0.00931135   0.00000000  -0.00000000  -0.00000000
Cu   5.32101000   1.77988000   3.55044000   0.00000000  -0.00000000  -0.00000000
Cu   8.86214000   1.77988000   0.00931135   0.00000000  -0.00000000  -0.00000000
Cu   8.86214000   1.77988000   3.55044000   0.00000000  -0.00000000  -0.00000000
Cu   0.00931135   7.09157000   0.00931135  -0.00000000   0.00000000  -0.00000000
Cu   0.00931135   7.09157000   3.55044000  -0.00000000   0.00000000  -0.00000000
Cu   3.55044000   7.09157000   0.00931135  -0.00000000   0.00000000  -0.00000000
Cu   3.55044000   7.09157000   3.55044000  -0.00000000   0.00000000  -0.00000000
Cu   0.00931135   5.32101000   1.77988000  -0.00000000   0.00000000  -0.00000000
Cu   0.00931135   8.86214000   1.77988000  -0.00000000   0.00000000  -0.00000000
Cu   3.55044000   5.32101000   1.77988000  -0.00000000   0.00000000  -0.00000000
Cu   3.55044000   8.86214000   1.77988000  -0.00000000   0.00000000  -0.00000000
Cu   1.77988000   7.09157000   1.77988000  -0.00000000   0.00000000  -0.00000000
Cu   1.77988000   5.32101000   0.00931135  -0.00000000   0.00000000  -0.00000000
Cu   1.77988000   5.32101000   3.55044000  -0.00000000   0.00000000  -0.00000000
Cu   1.77988000   8.86214000   0.00931135  -0.00000000   0.00000000  -0.00000000
Cu   1.77988000   8.86214000   3.55044000  -0.00000000   0.00000000  -0.00000000
Cu   7.09157000   7.09157000   0.00931135   0.00000000   0.00000000  -0.00000000
Cu   7.09157000   7.09157000   3.55044000   0.00000000   0.00000000  -0.00000000
Cu   7.09157000   5.32101000   1.77988000   0.00000000   0.00000000  -0.00000000
Cu   7.09157000   8.86214000   1.77988000   0.00000000   0.00000000  -0.00000000
Cu   5.32101000   7.09157000   1.77988000   0.00000000   0.00000000  -0.00000000
Cu   8.86214000   7.09157000   1.77988000   0.00000000   0.00000000  -0.00000000
Cu   5.32101000   5.32101000   0.00931135   0.00000000   0.00000000  -0.00000000
Cu   5.32101000   5.32101000   3.55044000   0.00000000   0.00000000  -0.00000000
Cu   5.32101000   8.86214000   0.00931135   0.00000000   0.00000000  -0.00000000
Cu   5.32101000   8.86214000   3.55044000   0.00000000   0.00000000  -0.00000000
Cu   8.86214000   5.32101000   0.00931135   0.00000000   0.00000000  -0.00000000
Cu   8.86214000   5.32101000   3.55044000   0.00000000   0.00000000  -0.00000000
Cu   8.86214000   8.86214000   0.00931135   0.00000000   0.00000000  -0.00000000
Cu   8.86214000   8.86214000   3.55044000   0.00000000   0.00000000  -0.00000000
Cu   0.00931135   0.00931135   7.09157000  -0.00000000  -0.00000000   0.00000000
Cu   0.00931135   3.55044000   7.09157000  -0.00000000  -0.00000000   0.00000000
Cu   3.55044000   0.00931135   7.09157000  -0.00000000  -0.00000000   0.00000000
Cu   3.55044000   3.55044000   7.09157000  -0.00000000  -0.00000000   0.00000000
Cu   0.00931135   1.77988000   5.32101000  -0.00000000  -0.00000000   0.00000000
Cu   0.00931135   1.77988000   8.86214000  -0.00000000  -0.00000000   0.00000000
Cu   3.55044000   1.77988000   5.32101000  -0.00000000  -0.00000000   0.00000000
Cu   3.55044000   1.77988000   8.86214000  -0.00000000  -0.00000000   0.00000000
Cu   1.77988000   0.00931135   5.32101000  -0.00000000  -0.00000000   0.00000000
Cu   1.77988000   0.00931135   8.86214000  -0.00000000  -0.00000000   0.00000000
Cu   1.77988000   3.55044000   5.32101000  -0.00000000  -0.00000000   0.00000000
Cu   1.77988000   3.55044000   8.86214000  -0.00000000  -0.00000000   0.00000000
Cu   1.77988000   1.77988000   7.09157000  -0.00000000  -0.00000000   0.00000000
Cu   7.09157000   0.00931135   7.09157000   0.00000000  -0.00000000   0.00000000
Cu   7.09157000   3.55044000   7.09157000   0.00000000  -0.00000000   0.00000000
Cu   7.09157000   1.77988000   5.32101000   0.00000000  -0.00000000   0.00000000
Cu   7.09157000   1.77988000   8.86214000   0.00000000  -0.00000000   0.00000000
Cu   5.32101000   0.00931135   5.32101000   0.00000000  -0.00000000   0.00000000
Cu   5.32101000   0.00931135   8.86214000   0.00000000  -0.00000000   0.00000000
Cu   5.32101000   3.55044000   5.32101000   0.00000000  -0.00000000   0.00000000
Cu   5.32101000   3.55044000   8.86214000   0.00000000  -0.00000000   0.00000000
Cu   8.86214000   0.00931135   5.32101000   0.00000000  -0.00000000   0.00000000
Cu   8.86214000   0.00931135   8.86214000   0.00000000  -0.00000000   0.00000000
Cu   8.86214000   3.55044000   5.32101000   0.00000000  -0.00000000   0.00000000
Cu   8.86214000   3.55044000   8.86214000   0.00000000  -0.00000000   0.00000000
Cu   5.32101000   1.77988000   7.09157000   0.00000000  -0.00000000   0.00000000
Cu   8.86214000   1.77988000   7.09157000   0.00000000  -0.00000000   0.00000000
Cu   0.00931135   7.09157000   7.09157000  -0.00000000   0.00000000   0.00000000
Cu   3.55044000   7.09157000   7.09157000  -0.00000000   0.00000000   0.00000000
Cu   0.00931135   5.32101000   5.32101000  -0.00000000   0.00000000   0.00000000
Cu   0.00931135   5.32101000   8.86214000  -0.00000000   0.00000000   0.00000000
Cu   0.00931135   8.86214000   5.32101000  -0.00000000   0.00000000   0.00000000
Cu   0.00931135   8.86214000   8.86214000  -0.00000000   0.00000000   0.00000000
Cu   3.55044000   5.32101000   5.32101000  -0.00000000   0.00000000   0.00000000
Cu   3.55044000   5.32101000   8.86214000  -0.00000000   0.00000000   0.00000000
Cu   3.55044000   8.86214000   5.32101000  -0.00000000   0.00000000   0.00000000
Cu   3.55044000   8.86214000   8.86214000  -0.00000000   0.00000000   0.00000000
Cu   1.77988000   7.09157000   5.32101000  -0.00000000   0.00000000   0.00000000
Cu   1.77988000   7.09157000   8.86214000  -0.00000000   0.00000000   0.00000000
Cu   1.77988000   5.32101000   7.09157000  -0.00000000   0.00000000   0.00000000
Cu   1.77988000   8.86214000   7.09157000  -0.00000000   0.00000000   0.00000000
Cu   7.09157000   7.09157000   7.09157000   0.00000000   0.00000000   0.00000000
Cu   7.09157000   5.32101000   5.32101000   0.00000000   0.00000000   0.00000000
Cu   7.09157000   5.32101000   8.86214000   0.00000000   0.00000000   0.00000000
Cu   7.09157000   8.86214000   5.32101000   0.00000000   0.00000000   0.00000000
Cu   7.09157000   8.86214000   8.86214000   0.00000000   0.00000000   0.00000000
Cu   5.32101000   7.09157000   5.32101000   0.00000000   0.00000000   0.00000000
Cu   5.32101000   7.09157000   8.86214000   0.00000000   0.00000000   0.00000000
Cu   8.86214000   7.09157000   5.32101000   0.00000000   0.00000000   0.00000000
Cu   8.86214000   7.09157000   8.86214000   0.00000000   0.00000000   0.00000000
Cu   5.32101000   5.32101000   7.09157000   0.00000000   0.00000000   0.00000000
Cu   5.32101000   8.86214000   7.09157000   0.00000000   0.00000000   0.00000000
Cu   8.86214000   5.32101000   7.09157000   0.00000000   0.00000000   0.00000000
Cu   8.86214000   8.86214000   7.09157000   0.00000000   0.00000000   0.00000000
108
Lattice="10.6982062280004 0.0 0.0 0.0 10.6982062280004 0.0 0.0 0.0 10.6982062280004" Properties=species:S:1:pos:R:3:forces:R:3 virial="70.3322555398526 1.6250921683177082e-14 1.855851584098015e-14 1.6250921683177082e-14 70.3322555398529 -5.041755324191118e-14 1.855851584098015e-14 -5.041755324191118e-14 70.33225553985282" label=1 energy=-400.668936400614 stress="-0.05744095462285964 -1.3272266726240373e-17 -1.5156898610841806e-17 -1.3272266726240373e-17 -0.05744095462285989 4.117644693370088e-17 -1.5156898610841806e-17 4.117644693370088e-17 -0.05744095462285983" free_energy=-400.668936400614 pbc="T T T"
Cu   0.00937693   0.00937693   0.00937693  -0.00000000  -0.00000000  -0.00000000
Cu   0.00937693   0.00937693   3.57545000  -0.00000000  -0.00000000  -0.00000000
Cu   0.00937693   3.57545000   0.00937693  -0.00000000  -0.00000000  -0.00000000
Cu   0.00937693   3.57545000   3.57545000  -0.00000000  -0.00000000  -0.00000000
Cu   3.57545000   0.00937693   0.00937693  -0.00000000  -0.00000000  -0.00000000
Cu   3.57545000   0.00937693   3.57545000  -0.00000000  -0.00000000  -0.00000000
Cu   3.57545000   3.57545000   0.00937693  -0.00000000  -0.00000000  -0.00000000
Cu   3.57545000   3.57545000   3.57545000  -0.00000000  -0.00000000  -0.00000000
Cu   0.00937693   1.79241000   1.79241000  -0.00000000  -0.00000000  -0.00000000
Cu   3.57545000   1.79241000   1.79241000  -0.00000000  -0.00000000  -0.00000000
Cu   1.79241000   0.00937693   1.79241000  -0.00000000  -0.00000000  -0.00000000
Cu   1.79241000   3.57545000   1.79241000  -0.00000000  -0.00000000  -0.00000000
Cu   1.79241000   1.79241000   0.00937693  -0.00000000  -0.00000000  -0.00000000
Cu   1.79241000   1.79241000   3.57545000  -0.00000000  -0.00000000  -0.00000000
Cu   7.14151000   0.00937693   0.00937693   0.00000000  -0.00000000  -0.00000000
Cu   7.14151000   0.00937693   3.57545000   0.00000000  -0.00000000  -0.00000000
Cu   7.14151000   3.57545000   0.00937693   0.00000000  -0.00000000  -0.00000000
Cu   7.14151000   3.57545000   3.57545000   0.00000000  -0.00000000  -0.00000000
Cu   7.14151000   1.79241000   1.79241000   0.00000000  -0.00000000  -0.00000000
Cu   5.35848000   0.00937693   1.79241000   0.00000000  -0.00000000  -0.00000000
Cu   5.35848000   3.57545000   1.79241000   0.00000000  -0.00000000  -0.00000000
Cu   8.92455000   0.00937693   1.79241000   0.00000000  -0.00000000  -0.00000000
Cu   8.92455000   3.57545000   1.79241000   0.00000000  -0.00000000  -0.00000000
Cu   5.35848000   1.79241000   0.00937693   0.00000000  -0.00000000  -0.00000000
Cu   5.35848000   1.79241000   3.57545000   0.00000000  -0.00000000  -0.00000000
Cu   8.92455000   1.79241000   0.00937693   0.00000000  -0.00000000  -0.00000000
Cu   8.92455000   1.79241000   3.57545000   0.00000000  -0.00000000  -0.00000000
Cu   0.00937693   7.14151000   0.00937693  -0.00000000   0.00000000  -0.00000000
Cu   0.00937693   7.14151000   3.57545000  -0.00000000   0.00000000  -0.00000000
Cu   3.57545000   7.14151000   0.00937693  -0.00000000   0.00000000  -0.00000000
Cu   3.57545000   7.14151000   3.57545000  -0.00000000   0.00000000  -0.00000000
Cu   0.00937693   5.35848000   1.79241000  -0.00000000   0.00000000  -0.00000000
Cu   0.00937693   8.92455000   1.79241000  -0.00000000   0.00000000  -0.00000000
Cu   3.57545000   5.35848000   1.79241000  -0.00000000   0.00000000  -0.00000000
Cu   3.57545000   8.92455000   1.79241000  -0.00000000   0.00000000  -0.00000000
Cu   1.79241000   7.14151000   1.79241000  -0.00000000   0.00000000  -0.00000000
Cu   1.79241000   5.35848000   0.00937693  -0.00000000   0.00000000  -0.00000000
Cu   1.79241000   5.35848000   3.57545000  -0.00000000   0.00000000  -0.00000000
Cu   1.79241000   8.92455000   0.00937693  -0.00000000   0.00000000  -0.00000000
Cu   1.79241000   8.92455000   3.57545000  -0.00000000   0.00000000  -0.00000000
Cu   7.14151000   7.14151000   0.00937693   0.00000000   0.00000000  -0.00000000
Cu   7.14151000   7.14151000   3.57545000   0.00000000   0.00000000  -0.00000000
Cu   7.14151000   5.35848000   1.79241000   0.00000000   0.00000000  -0.00000000
Cu   7.14151000   8.92455000   1.79241000   0.00000000   0.00000000  -0.00000000
Cu   5.35848000   7.14151000   1.79241000   0.00000000   0.00000000  -0.00000000
Cu   8.92455000   7.14151000   1.79241000   0.00000000   0.00000000  -0.00000000
Cu   5.35848000   5.35848000   0.00937693   0.00000000   0.00000000  -0.00000000
Cu   5.35848000   5.35848000   3.57545000   0.00000000   0.00000000  -0.00000000
Cu   5.35848000   8.92455000   0.00937693   0.00000000   0.00000000  -0.00000000
Cu   5.35848000   8.92455000   3.57545000   0.00000000   0.00000000  -0.00000000
Cu   8.92455000   5.35848000   0.00937693   0.00000000   0.00000000  -0.00000000
Cu   8.92455000   5.35848000   3.57545000   0.00000000   0.00000000  -0.00000000
Cu   8.92455000   8.92455000   0.00937693   0.00000000   0.00000000  -0.00000000
Cu   8.92455000   8.92455000   3.57545000   0.00000000   0.00000000  -0.00000000
Cu   0.00937693   0.00937693   7.14151000  -0.00000000  -0.00000000   0.00000000
Cu   0.00937693   3.57545000   7.14151000  -0.00000000  -0.00000000   0.00000000
Cu   3.57545000   0.00937693   7.14151000  -0.00000000  -0.00000000   0.00000000
Cu   3.57545000   3.57545000   7.14151000  -0.00000000  -0.00000000   0.00000000
Cu   0.00937693   1.79241000   5.35848000  -0.00000000  -0.00000000   0.00000000
Cu   0.00937693   1.79241000   8.92455000  -0.00000000  -0.00000000   0.00000000
Cu   3.57545000   1.79241000   5.35848000  -0.00000000  -0.00000000   0.00000000
Cu   3.57545000   1.79241000   8.92455000  -0.00000000  -0.00000000   0.00000000
Cu   1.79241000   0.00937693   5.35848000  -0.00000000  -0.00000000   0.00000000
Cu   1.79241000   0.00937693   8.92455000  -0.00000000  -0.00000000   0.00000000
Cu   1.79241000   3.57545000   5.35848000  -0.00000000  -0.00000000   0.00000000
Cu   1.79241000   3.57545000   8.92455000  -0.00000000  -0.00000000   0.00000000
Cu   1.79241000   1.79241000   7.14151000  -0.00000000  -0.00000000   0.00000000
Cu   7.14151000   0.00937693   7.14151000   0.00000000  -0.00000000   0.00000000
Cu   7.14151000   3.57545000   7.14151000   0.00000000  -0.00000000   0.00000000
Cu   7.14151000   1.79241000   5.35848000   0.00000000  -0.00000000   0.00000000
Cu   7.14151000   1.79241000   8.92455000   0.00000000  -0.00000000   0.00000000
Cu   5.35848000   0.00937693   5.35848000   0.00000000  -0.00000000   0.00000000
Cu   5.35848000   0.00937693   8.92455000   0.00000000  -0.00000000   0.00000000
Cu   5.35848000   3.57545000   5.35848000   0.00000000  -0.00000000   0.00000000
Cu   5.35848000   3.57545000   8.92455000   0.00000000  -0.00000000   0.00000000
Cu   8.92455000   0.00937693   5.35848000   0.00000000  -0.00000000   0.00000000
Cu   8.92455000   0.00937693   8.92455000   0.00000000  -0.00000000   0.00000000
Cu   8.92455000   3.57545000   5.35848000   0.00000000  -0.00000000   0.00000000
Cu   8.92455000   3.57545000   8.92455000   0.00000000  -0.00000000   0.00000000
Cu   5.35848000   1.79241000   7.14151000   0.00000000  -0.00000000   0.00000000
Cu   8.92455000   1.79241000   7.14151000   0.00000000  -0.00000000   0.00000000
Cu   0.00937693   7.14151000   7.14151000  -0.00000000   0.00000000   0.00000000
Cu   3.57545000   7.14151000   7.14151000  -0.00000000   0.00000000   0.00000000
Cu   0.00937693   5.35848000   5.35848000  -0.00000000   0.00000000   0.00000000
Cu   0.00937693   5.35848000   8.92455000  -0.00000000   0.00000000   0.00000000
Cu   0.00937693   8.92455000   5.35848000  -0.00000000   0.00000000   0.00000000
Cu   0.00937693   8.92455000   8.92455000  -0.00000000   0.00000000   0.00000000
Cu   3.57545000   5.35848000   5.35848000  -0.00000000   0.00000000   0.00000000
Cu   3.57545000   5.35848000   8.92455000  -0.00000000   0.00000000   0.00000000
Cu   3.57545000   8.92455000   5.35848000  -0.00000000   0.00000000   0.00000000
Cu   3.57545000   8.92455000   8.92455000  -0.00000000   0.00000000   0.00000000
Cu   1.79241000   7.14151000   5.35848000  -0.00000000   0.00000000   0.00000000
Cu   1.79241000   7.14151000   8.92455000  -0.00000000   0.00000000   0.00000000
Cu   1.79241000   5.35848000   7.14151000  -0.00000000   0.00000000   0.00000000
Cu   1.79241000   8.92455000   7.14151000  -0.00000000   0.00000000   0.00000000
Cu   7.14151000   7.14151000   7.14151000   0.00000000   0.00000000   0.00000000
Cu   7.14151000   5.35848000   5.35848000   0.00000000   0.00000000   0.00000000
Cu   7.14151000   5.35848000   8.92455000   0.00000000   0.00000000   0.00000000
Cu   7.14151000   8.92455000   5.35848000   0.00000000   0.00000000   0.00000000
Cu   7.14151000   8.92455000   8.92455000   0.00000000   0.00000000   0.00000000
Cu   5.35848000   7.14151000   5.35848000   0.00000000   0.00000000   0.00000000
Cu   5.35848000   7.14151000   8.92455000   0.00000000   0.00000000   0.00000000
Cu   8.92455000   7.14151000   5.35848000   0.00000000   0.00000000   0.00000000
Cu   8.92455000   7.14151000   8.92455000   0.00000000   0.00000000   0.00000000
Cu   5.35848000   5.35848000   7.14151000   0.00000000   0.00000000   0.00000000
Cu   5.35848000   8.92455000   7.14151000   0.00000000   0.00000000   0.00000000
Cu   8.92455000   5.35848000   7.14151000   0.00000000   0.00000000   0.00000000
Cu   8.92455000   8.92455000   7.14151000   0.00000000   0.00000000   0.00000000
108
Lattice="10.7719892921663 0.0 0.0 0.0 10.7719892921663 0.0 0.0 0.0 10.7719892921663" Properties=species:S:1:pos:R:3:forces:R:3 virial="43.4485263097509 -6.049352518721307e-15 -2.7673310411765022e-14 -6.049352518721307e-15 43.448526309750825 -1.0142196429779678e-14 -2.7673310411765022e-14 -1.0142196429779678e-14 43.448526309750825" label=1 energy=-401.839282774315 stress="-0.03476060378931347 4.8397302266605325e-18 2.2139783796215068e-17 4.8397302266605325e-18 -0.03476060378931341 8.114173289459544e-18 2.2139783796215068e-17 8.114173289459544e-18 -0.03476060378931341" free_energy=-401.839282774315 pbc="T T T"
Cu   0.00944160   0.00944160   0.00944160  -0.00000000  -0.00000000  -0.00000000
Cu   0.00944160   0.00944160   3.60010000  -0.00000000  -0.00000000  -0.00000000
Cu   0.00944160   3.60010000   0.00944160  -0.00000000  -0.00000000  -0.00000000
Cu   0.00944160   3.60010000   3.60010000  -0.00000000  -0.00000000  -0.00000000
Cu   3.60010000   0.00944160   0.00944160  -0.00000000  -0.00000000  -0.00000000
Cu   3.60010000   0.00944160   3.60010000  -0.00000000  -0.00000000  -0.00000000
Cu   3.60010000   3.60010000   0.00944160  -0.00000000  -0.00000000  -0.00000000
Cu   3.60010000   3.60010000   3.60010000  -0.00000000  -0.00000000  -0.00000000
Cu   0.00944160   1.80477000   1.80477000  -0.00000000  -0.00000000  -0.00000000
Cu   3.60010000   1.80477000   1.80477000  -0.00000000  -0.00000000  -0.00000000
Cu   1.80477000   0.00944160   1.80477000  -0.00000000  -0.00000000  -0.00000000
Cu   1.80477000   3.60010000   1.80477000  -0.00000000  -0.00000000  -0.00000000
Cu   1.80477000   1.80477000   0.00944160  -0.00000000  -0.00000000  -0.00000000
Cu   1.80477000   1.80477000   3.60010000  -0.00000000  -0.00000000  -0.00000000
Cu   7.19077000   0.00944160   0.00944160   0.00000000  -0.00000000  -0.00000000
Cu   7.19077000   0.00944160   3.60010000   0.00000000  -0.00000000  -0.00000000
Cu   7.19077000   3.60010000   0.00944160   0.00000000  -0.00000000  -0.00000000
Cu   7.19077000   3.60010000   3.60010000   0.00000000  -0.00000000  -0.00000000
Cu   7.19077000   1.80477000   1.80477000   0.00000000  -0.00000000  -0.00000000
Cu   5.39544000   0.00944160   1.80477000   0.00000000  -0.00000000  -0.00000000
Cu   5.39544000   3.60010000   1.80477000   0.00000000  -0.00000000  -0.00000000
Cu   8.98610000   0.00944160   1.80477000   0.00000000  -0.00000000  -0.00000000
Cu   8.98610000   3.60010000   1.80477000   0.00000000  -0.00000000  -0.00000000
Cu   5.39544000   1.80477000   0.00944160   0.00000000  -0.00000000  -0.00000000
Cu   5.39544000   1.80477000   3.60010000   0.00000000  -0.00000000  -0.00000000
Cu   8.98610000   1.80477000   0.00944160   0.00000000  -0.00000000  -0.00000000
Cu   8.98610000   1.80477000   3.60010000   0.00000000  -0.00000000  -0.00000000
Cu   0.00944160   7.19077000   0.00944160  -0.00000000   0.00000000  -0.00000000
Cu   0.00944160   7.19077000   3.60010000  -0.00000000   0.00000000  -0.00000000
Cu   3.60010000   7.19077000   0.00944160  -0.00000000   0.00000000  -0.00000000
Cu   3.60010000   7.19077000   3.60010000  -0.00000000   0.00000000  -0.00000000
Cu   0.00944160   5.39544000   1.80477000  -0.00000000   0.00000000  -0.00000000
Cu   0.00944160   8.98610000   1.80477000  -0.00000000   0.00000000  -0.00000000
Cu   3.60010000   5.39544000   1.80477000  -0.00000000   0.00000000  -0.00000000
Cu   3.60010000   8.98610000   1.80477000  -0.00000000   0.00000000  -0.00000000
Cu   1.80477000   7.19077000   1.80477000  -0.00000000   0.00000000  -0.00000000
Cu   1.80477000   5.39544000   0.00944160  -0.00000000   0.00000000  -0.00000000
Cu   1.80477000   5.39544000   3.60010000  -0.00000000   0.00000000  -0.00000000
Cu   1.80477000   8.98610000   0.00944160  -0.00000000   0.00000000  -0.00000000
Cu   1.80477000   8.98610000   3.60010000  -0.00000000   0.00000000  -0.00000000
Cu   7.19077000   7.19077000   0.00944160   0.00000000   0.00000000  -0.00000000
Cu   7.19077000   7.19077000   3.60010000   0.00000000   0.00000000  -0.00000000
Cu   7.19077000   5.39544000   1.80477000   0.00000000   0.00000000  -0.00000000
Cu   7.19077000   8.98610000   1.80477000   0.00000000   0.00000000  -0.00000000
Cu   5.39544000   7.19077000   1.80477000   0.00000000   0.00000000  -0.00000000
Cu   8.98610000   7.19077000   1.80477000   0.00000000   0.00000000  -0.00000000
Cu   5.39544000   5.39544000   0.00944160   0.00000000   0.00000000  -0.00000000
Cu   5.39544000   5.39544000   3.60010000   0.00000000   0.00000000  -0.00000000
Cu   5.39544000   8.98610000   0.00944160   0.00000000   0.00000000  -0.00000000
Cu   5.39544000   8.98610000   3.60010000   0.00000000   0.00000000  -0.00000000
Cu   8.98610000   5.39544000   0.00944160   0.00000000   0.00000000  -0.00000000
Cu   8.98610000   5.39544000   3.60010000   0.00000000   0.00000000  -0.00000000
Cu   8.98610000   8.98610000   0.00944160   0.00000000   0.00000000  -0.00000000
Cu   8.98610000   8.98610000   3.60010000   0.00000000   0.00000000  -0.00000000
Cu   0.00944160   0.00944160   7.19077000  -0.00000000  -0.00000000   0.00000000
Cu   0.00944160   3.60010000   7.19077000  -0.00000000  -0.00000000   0.00000000
Cu   3.60010000   0.00944160   7.19077000  -0.00000000  -0.00000000   0.00000000
Cu   3.60010000   3.60010000   7.19077000  -0.00000000  -0.00000000   0.00000000
Cu   0.00944160   1.80477000   5.39544000  -0.00000000  -0.00000000   0.00000000
Cu   0.00944160   1.80477000   8.98610000  -0.00000000  -0.00000000   0.00000000
Cu   3.60010000   1.80477000   5.39544000  -0.00000000  -0.00000000   0.00000000
Cu   3.60010000   1.80477000   8.98610000  -0.00000000  -0.00000000   0.00000000
Cu   1.80477000   0.00944160   5.39544000  -0.00000000  -0.00000000   0.00000000
Cu   1.80477000   0.00944160   8.98610000  -0.00000000  -0.00000000   0.00000000
Cu   1.80477000   3.60010000   5.39544000  -0.00000000  -0.00000000   0.00000000
Cu   1.80477000   3.60010000   8.98610000  -0.00000000  -0.00000000   0.00000000
Cu   1.80477000   1.80477000   7.19077000  -0.00000000  -0.00000000   0.00000000
Cu   7.19077000   0.00944160   7.19077000   0.00000000  -0.00000000   0.00000000
Cu   7.19077000   3.60010000   7.19077000   0.00000000  -0.00000000   0.00000000
Cu   7.19077000   1.80477000   5.39544000   0.00000000  -0.00000000   0.00000000
Cu   7.19077000   1.80477000   8.98610000   0.00000000  -0.00000000   0.00000000
Cu   5.39544000   0.00944160   5.39544000   0.00000000  -0.00000000   0.00000000
Cu   5.39544000   0.00944160   8.98610000   0.00000000  -0.00000000   0.00000000
Cu   5.39544000   3.60010000   5.39544000   0.00000000  -0.00000000   0.00000000
Cu   5.39544000   3.60010000   8.98610000   0.00000000  -0.00000000   0.00000000
Cu   8.98610000   0.00944160   5.39544000   0.00000000  -0.00000000   0.00000000
Cu   8.98610000   0.00944160   8.98610000   0.00000000  -0.00000000   0.00000000
Cu   8.98610000   3.60010000   5.39544000   0.00000000  -0.00000000   0.00000000
Cu   8.98610000   3.60010000   8.98610000   0.00000000  -0.00000000   0.00000000
Cu   5.39544000   1.80477000   7.19077000   0.00000000  -0.00000000   0.00000000
Cu   8.98610000   1.80477000   7.19077000   0.00000000  -0.00000000   0.00000000
Cu   0.00944160   7.19077000   7.19077000  -0.00000000   0.00000000   0.00000000
Cu   3.60010000   7.19077000   7.19077000  -0.00000000   0.00000000   0.00000000
Cu   0.00944160   5.39544000   5.39544000  -0.00000000   0.00000000   0.00000000
Cu   0.00944160   5.39544000   8.98610000  -0.00000000   0.00000000   0.00000000
Cu   0.00944160   8.98610000   5.39544000  -0.00000000   0.00000000   0.00000000
Cu   0.00944160   8.98610000   8.98610000  -0.00000000   0.00000000   0.00000000
Cu   3.60010000   5.39544000   5.39544000  -0.00000000   0.00000000   0.00000000
Cu   3.60010000   5.39544000   8.98610000  -0.00000000   0.00000000   0.00000000
Cu   3.60010000   8.98610000   5.39544000  -0.00000000   0.00000000   0.00000000
Cu   3.60010000   8.98610000   8.98610000  -0.00000000   0.00000000   0.00000000
Cu   1.80477000   7.19077000   5.39544000  -0.00000000   0.00000000   0.00000000
Cu   1.80477000   7.19077000   8.98610000  -0.00000000   0.00000000   0.00000000
Cu   1.80477000   5.39544000   7.19077000  -0.00000000   0.00000000   0.00000000
Cu   1.80477000   8.98610000   7.19077000  -0.00000000   0.00000000   0.00000000
Cu   7.19077000   7.19077000   7.19077000   0.00000000   0.00000000   0.00000000
Cu   7.19077000   5.39544000   5.39544000   0.00000000   0.00000000   0.00000000
Cu   7.19077000   5.39544000   8.98610000   0.00000000   0.00000000   0.00000000
Cu   7.19077000   8.98610000   5.39544000   0.00000000   0.00000000   0.00000000
Cu   7.19077000   8.98610000   8.98610000   0.00000000   0.00000000   0.00000000
Cu   5.39544000   7.19077000   5.39544000   0.00000000   0.00000000   0.00000000
Cu   5.39544000   7.19077000   8.98610000   0.00000000   0.00000000   0.00000000
Cu   8.98610000   7.19077000   5.39544000   0.00000000   0.00000000   0.00000000
Cu   8.98610000   7.19077000   8.98610000   0.00000000   0.00000000   0.00000000
Cu   5.39544000   5.39544000   7.19077000   0.00000000   0.00000000   0.00000000
Cu   5.39544000   8.98610000   7.19077000   0.00000000   0.00000000   0.00000000
Cu   8.98610000   5.39544000   7.19077000   0.00000000   0.00000000   0.00000000
Cu   8.98610000   8.98610000   7.19077000   0.00000000   0.00000000   0.00000000
108
Lattice="10.8447752115 0.0 0.0 0.0 10.8447752115 0.0 0.0 0.0 10.8447752115" Properties=species:S:1:pos:R:3:forces:R:3 virial="18.62042757974654 2.526838808616114e-14 -1.3978755317252368e-14 2.526838808616114e-14 18.620427579746462 2.1229189406513134e-14 -1.3978755317252368e-14 2.1229189406513134e-14 18.62042757974654" label=1 energy=-402.463758854347 stress="-0.014599163959102525 -1.981143231390397e-17 1.0959906261374985e-17 -1.981143231390397e-17 -0.014599163959102464 -1.6644538130887883e-17 1.0959906261374985e-17 -1.6644538130887883e-17 -0.014599163959102525" free_energy=-402.463758854347 pbc="T T T"
Cu   0.00950539   0.00950539   0.00950539  -0.00000000  -0.00000000  -0.00000000
Cu   0.00950539   0.00950539   3.62443000  -0.00000000  -0.00000000  -0.00000000
Cu   0.00950539   3.62443000   0.00950539  -0.00000000  -0.00000000  -0.00000000
Cu   0.00950539   3.62443000   3.62443000  -0.00000000  -0.00000000  -0.00000000
Cu   3.62443000   0.00950539   0.00950539  -0.00000000  -0.00000000  -0.00000000
Cu   3.62443000   0.00950539   3.62443000  -0.00000000  -0.00000000  -0.00000000
Cu   3.62443000   3.62443000   0.00950539  -0.00000000  -0.00000000  -0.00000000
Cu   3.62443000   3.62443000   3.62443000  -0.00000000  -0.00000000  -0.00000000
Cu   0.00950539   1.81697000   1.81697000  -0.00000000  -0.00000000  -0.00000000
Cu   3.62443000   1.81697000   1.81697000  -0.00000000  -0.00000000  -0.00000000
Cu   1.81697000   0.00950539   1.81697000  -0.00000000  -0.00000000  -0.00000000
Cu   1.81697000   3.62443000   1.81697000  -0.00000000  -0.00000000  -0.00000000
Cu   1.81697000   1.81697000   0.00950539  -0.00000000  -0.00000000  -0.00000000
Cu   1.81697000   1.81697000   3.62443000  -0.00000000  -0.00000000  -0.00000000
Cu   7.23936000   0.00950539   0.00950539   0.00000000  -0.00000000  -0.00000000