158
Lattice="11.400361 0.0 0.0 0.0 12.098904 0.0 0.0 0.0 12.816801" Properties=species:S:1:pos:R:3:forces:R:3 label=477 label_name=1_cut_1_2_1_N158.vasp_relaxed.vasp virial="0.0 0.0 0.0 0.0 0.0 0.0 0.0 0.0 0.0" energy=0.0 stress="0.0 0.0 0.0 0.0 0.0 0.0 0.0 0.0 0.0" pbc="T T T"
Cu      -0.02859945       4.40272539      12.29055433       0.00000000       0.00000000       0.00000000
Cu       8.29814261      11.58709351       4.92521137       0.00000000       0.00000000       0.00000000
Cu       7.03950811      10.64844314       7.05550994       0.00000000       0.00000000       0.00000000
Cu       7.53093111      11.60067069       9.33014341       0.00000000       0.00000000       0.00000000
Cu       6.25224670      10.78693961      11.42488010       0.00000000       0.00000000       0.00000000
Cu       9.12059187      -0.70180505       0.81582368       0.00000000       0.00000000       0.00000000
Cu       9.58583613       0.40274626       2.89919882       0.00000000       0.00000000       0.00000000
Cu       8.76641341       0.39145392       7.23546922       0.00000000       0.00000000       0.00000000
Cu       8.03417666       0.55231818      11.63430235       0.00000000       0.00000000       0.00000000
Cu       9.72725119       2.50595445      -0.92914831       0.00000000       0.00000000       0.00000000
Cu       8.46417072       1.69683744       1.08187756       0.00000000       0.00000000       0.00000000
Cu       8.87790467       2.72326575       3.43093782       0.00000000       0.00000000       0.00000000
Cu       7.64494675       1.82814987       5.45579017       0.00000000       0.00000000       0.00000000
Cu       8.14863676       2.75718742       7.75999957       0.00000000       0.00000000       0.00000000
Cu       6.91031058       1.90860149       9.74089986       0.00000000       0.00000000       0.00000000
Cu      12.17014707       2.10993225      11.83785994       0.00000000       0.00000000       0.00000000
Cu       7.80012148      10.55687345       2.79850871       0.00000000       0.00000000       0.00000000
Cu       6.88430630       8.34873247      11.28236426       0.00000000       0.00000000       0.00000000
Cu       8.06584696       9.11117439       9.47580188       0.00000000       0.00000000       0.00000000
Cu       7.74116110       8.28212295       6.75773196       0.00000000       0.00000000       0.00000000
Cu       6.52469070       5.30648783      -0.24338775       0.00000000       0.00000000       0.00000000
Cu       5.28472000       4.47517664       1.75857754       0.00000000       0.00000000       0.00000000
Cu       5.67622255       5.50542588       4.09463879       0.00000000       0.00000000       0.00000000
Cu       4.47524367       4.63238862       6.03656548       0.00000000       0.00000000       0.00000000
Cu       7.38873037       5.14073306       8.20328850       0.00000000       0.00000000       0.00000000
Cu       6.17223451       4.32471895      10.12184541       0.00000000       0.00000000       0.00000000
Cu       7.37328528       3.01765104      11.91032062       0.00000000       0.00000000       0.00000000
Cu       9.36910713       5.87125506       2.01803997       0.00000000       0.00000000       0.00000000
Cu       5.67663102       7.58665240       0.34276513       0.00000000       0.00000000       0.00000000
Cu       7.31664564       7.32989894       4.46175824       0.00000000       0.00000000       0.00000000
Cu       6.11781430       6.46656427       6.40021792       0.00000000       0.00000000       0.00000000
Cu       8.99386040       6.97431114       8.60404376       0.00000000       0.00000000       0.00000000
Cu       7.76475520       6.12659298      10.57790850       0.00000000       0.00000000       0.00000000
Cu       7.32941792       9.44462115       0.69579938       0.00000000       0.00000000       0.00000000
Cu       6.09770616       8.67467012       2.60991141       0.00000000       0.00000000       0.00000000
Cu       8.94872341       9.17675129       4.75514003       0.00000000       0.00000000       0.00000000
Cu       4.45630420       6.78807089       2.26026649       0.00000000       0.00000000       0.00000000
Cu       7.72254282       4.04967458       1.59243939       0.00000000       0.00000000       0.00000000
Cu       8.14476260       5.03936347       3.96347672       0.00000000       0.00000000       0.00000000
Cu       6.94129954       4.17426923       5.91750055       0.00000000       0.00000000       0.00000000
Cu       8.55005144      10.17752531      11.66917011       0.00000000       0.00000000       0.00000000
Cu      10.47242051       0.13617728      11.67538569       0.00000000       0.00000000       0.00000000
Cu      10.85192296       1.29883833       0.92370328       0.00000000       0.00000000       0.00000000
Cu      11.28187571       2.27553551       3.24710348       0.00000000       0.00000000       0.00000000
Cu      10.01012909       1.31804280       5.19860386       0.00000000       0.00000000       0.00000000
Cu      10.56556747       2.18746514       7.66327185       0.00000000       0.00000000       0.00000000
Cu       9.32690709       1.32984995       9.62127988       0.00000000       0.00000000       0.00000000
Cu       9.72607259      10.91973456       9.89068540       0.00000000       0.00000000       0.00000000
Cu      11.80705317       5.40726598       1.92842551       0.00000000       0.00000000       0.00000000
Cu      10.57110547       4.54452893       3.86216222       0.00000000       0.00000000       0.00000000
Cu       9.36486724       3.63655800       5.79886994       0.00000000       0.00000000       0.00000000
Cu      10.98647809       3.31389372       9.94004380       0.00000000       0.00000000       0.00000000
Cu      10.62092436       6.66406811       0.07169807       0.00000000       0.00000000       0.00000000
Cu      11.02414510       7.71972883       2.42959712       0.00000000       0.00000000       0.00000000
Cu      11.41101407       8.81504856       4.72048369       0.00000000       0.00000000       0.00000000
Cu      11.88056177       7.46858220      10.93125852       0.00000000       0.00000000       0.00000000
Cu      10.11673901       3.59152629       1.44584099       0.00000000       0.00000000       0.00000000
Cu       5.62601958       1.08838424      11.72411264       0.00000000       0.00000000       0.00000000
Cu       9.19275868       9.91596098       7.72989439       0.00000000       0.00000000       0.00000000
Cu      10.16793383      10.01447097       2.70320677       0.00000000       0.00000000       0.00000000
Cu       9.80662021       4.62230006       8.08481328       0.00000000       0.00000000       0.00000000
Cu       8.59047404       3.79104225      10.00701960       0.00000000       0.00000000       0.00000000
Cu       8.95758465       4.84955387      12.40922302       0.00000000       0.00000000       0.00000000
Cu       8.14246343       7.10939217       0.20835003       0.00000000       0.00000000       0.00000000
Cu       6.89822270       6.32417801       2.14809208       0.00000000       0.00000000       0.00000000
Cu       9.79485968       6.87841825       4.35072517       0.00000000       0.00000000       0.00000000
Cu       8.59161107       5.99365298       6.27253369       0.00000000       0.00000000       0.00000000
Cu      10.21309292      10.76020997       5.99151776       0.00000000       0.00000000       0.00000000
Cu      11.44183871       6.48815121       8.47937903       0.00000000       0.00000000       0.00000000
Cu       9.77926455       8.92461100       0.59246277       0.00000000       0.00000000       0.00000000
Cu       8.53194337       8.14911273       2.52214218       0.00000000       0.00000000       0.00000000
Cu      11.86012305       9.57922936       7.19397423       0.00000000       0.00000000       0.00000000
Cu      10.20100315       7.86979272       6.65133578       0.00000000       0.00000000       0.00000000
Cu      10.65231004       8.69304990       9.16732352       0.00000000       0.00000000       0.00000000
Cu       9.40100534       7.88297507      11.09601359       0.00000000       0.00000000       0.00000000
Cu      11.49373797      10.86419484       0.71989946       0.00000000       0.00000000       0.00000000
Cu      10.20255342       5.65063123      10.43230361       0.00000000       0.00000000       0.00000000
Cu       4.51783789       2.47832256       9.83563168       0.00000000       0.00000000       0.00000000
Cu       5.74633605       3.31898485       7.88176477       0.00000000       0.00000000       0.00000000
Cu       5.29604444       2.34490453       5.64723367       0.00000000       0.00000000       0.00000000
Cu       2.47529844       8.29720641       4.61209371       0.00000000       0.00000000       0.00000000
Cu      -0.38245877       5.49478436       6.16138490       0.00000000       0.00000000       0.00000000
Cu       4.13213829       7.90620420       8.83114415       0.00000000       0.00000000       0.00000000
Cu       2.90049862       7.04970239      10.81740345       0.00000000       0.00000000       0.00000000
Cu       2.53181414      10.48323717       0.73578059       0.00000000       0.00000000       0.00000000
Cu       1.24474900       9.68364605       2.75763880       0.00000000       0.00000000       0.00000000
Cu       4.15431124      10.28401300       4.96394436       0.00000000       0.00000000       0.00000000
Cu       0.87564524       8.52565449       0.49646100       0.00000000       0.00000000       0.00000000
Cu       1.26333525       7.37696843       6.54541685       0.00000000       0.00000000       0.00000000
Cu       2.13393470       9.34344782      11.35438664       0.00000000       0.00000000       0.00000000
Cu       1.73827817      10.54265336       5.17977872       0.00000000       0.00000000       0.00000000
Cu       2.92645673      12.28367809       6.23850141       0.00000000       0.00000000       0.00000000
Cu       1.87766668      11.33030288       7.91402160       0.00000000       0.00000000       0.00000000
Cu       0.79205895      10.50316082       9.70252236       0.00000000       0.00000000       0.00000000
Cu       2.96919916      -0.63436400       2.94120717       0.00000000       0.00000000       0.00000000
Cu       3.96671143       0.81515202       4.44191620       0.00000000       0.00000000       0.00000000
Cu       3.39120133      10.20469081       9.37921402       0.00000000       0.00000000       0.00000000
Cu       4.11305767       1.48640978       7.70951413       0.00000000       0.00000000       0.00000000
Cu       2.41808381       3.97755578      12.17924643       0.00000000       0.00000000       0.00000000
Cu       2.46677179       6.05848124       8.41699727       0.00000000       0.00000000       0.00000000
Cu       1.72169916       8.34435424       8.95451350       0.00000000       0.00000000       0.00000000
Cu       2.94506881       9.28399254       6.97090621       0.00000000       0.00000000       0.00000000
Cu      -0.17124433      11.42658326       4.19744156       0.00000000       0.00000000       0.00000000
Cu       0.45264082      12.51110074       6.34589778       0.00000000       0.00000000       0.00000000
Cu       0.81856975       0.14659465       2.42362822       0.00000000       0.00000000       0.00000000
Cu       1.50969659       1.07703067       4.52459074       0.00000000       0.00000000       0.00000000
Cu       1.66553407       1.85397820       7.75363976       0.00000000       0.00000000       0.00000000
Cu       1.22898177       5.21025009      10.34378037       0.00000000       0.00000000       0.00000000
Cu       1.45880917      -0.35131664      11.59604071       0.00000000       0.00000000       0.00000000
Cu       1.59529400       4.02359265       3.80443642       0.00000000       0.00000000       0.00000000
Cu       0.38947518       3.05391987       5.71786253       0.00000000       0.00000000       0.00000000
Cu       0.81467439       4.15479511       8.00808650       0.00000000       0.00000000       0.00000000
Cu       0.40948922       0.99208249       9.73073798       0.00000000       0.00000000       0.00000000
Cu       2.03167954       0.88939065      13.51024075       0.00000000       0.00000000       0.00000000
Cu       1.65547842       6.22580881      -0.02465610       0.00000000       0.00000000       0.00000000
Cu       0.82267607       6.41512570       4.24876329       0.00000000       0.00000000       0.00000000
Cu       1.13872539       3.15610774       1.29089028       0.00000000       0.00000000       0.00000000
Cu      10.81244367      11.73632062       8.13573068       0.00000000       0.00000000       0.00000000
Cu       2.80312775       0.53782023       9.63856079       0.00000000       0.00000000       0.00000000
Cu       2.57263380       1.97901339       2.79058916       0.00000000       0.00000000       0.00000000
Cu       6.55748760       9.69319898       4.81628251       0.00000000       0.00000000       0.00000000
Cu       5.34613791       8.80124241       6.83074687       0.00000000       0.00000000       0.00000000
Cu       5.79367452       9.75946398       9.14673909       0.00000000       0.00000000       0.00000000
Cu       4.54969720       8.91464964      11.18697442       0.00000000       0.00000000       0.00000000
Cu       5.40565326      11.14163020       2.93898655       0.00000000       0.00000000       0.00000000
Cu       5.95509377      12.04014876       5.29550232       0.00000000       0.00000000       0.00000000
Cu       4.64725705      11.12035399       7.36408994       0.00000000       0.00000000       0.00000000
Cu       3.70905119       9.16232365       2.65410652       0.00000000       0.00000000       0.00000000
Cu       5.16451305      12.13999705       9.55052526       0.00000000       0.00000000       0.00000000
Cu       6.71506123      -0.19642290       0.87644372       0.00000000       0.00000000       0.00000000
Cu       7.20381273       0.85428318       3.15084857       0.00000000       0.00000000       0.00000000
Cu       6.42522719       0.92005912       7.51482532       0.00000000       0.00000000       0.00000000
Cu       4.31103434       0.25488385      13.71718410       0.00000000       0.00000000       0.00000000
Cu       6.17571684       2.28659244       0.93186514       0.00000000       0.00000000       0.00000000
Cu       5.01729114       1.60369381       2.70651585       0.00000000       0.00000000       0.00000000
Cu       6.50877758       3.22590919       3.61588926       0.00000000       0.00000000       0.00000000
Cu       3.85447837      11.29506499      11.55475659       0.00000000       0.00000000       0.00000000
Cu       3.72256291       2.77174938       0.99681748       0.00000000       0.00000000       0.00000000
Cu       4.96871807       9.98957232       0.65852617       0.00000000       0.00000000       0.00000000
Cu       6.53035541       7.41116656       8.74064753       0.00000000       0.00000000       0.00000000
Cu       4.06002305       3.62906878       3.75923640       0.00000000       0.00000000       0.00000000
Cu       2.84959908       2.71611983       5.72602520       0.00000000       0.00000000       0.00000000
Cu       3.27364368       3.77457579       7.97407641       0.00000000       0.00000000       0.00000000
Cu       2.05031883       2.92606492       9.91619545       0.00000000       0.00000000       0.00000000
Cu       3.26275690       1.65181266      11.69510512       0.00000000       0.00000000       0.00000000
Cu       4.07384258       5.75301301      -0.10387979       0.00000000       0.00000000       0.00000000
Cu       2.83081011       4.91172398       1.86418628       0.00000000       0.00000000       0.00000000
Cu       5.30980893       6.57455984      10.72784346       0.00000000       0.00000000       0.00000000
Cu       3.23486546       5.94423884       4.18456918       0.00000000       0.00000000       0.00000000
Cu       4.91391744       5.61039813       8.33691646       0.00000000       0.00000000       0.00000000
Cu       3.68299654       4.78555386      10.26331581       0.00000000       0.00000000       0.00000000
Cu       4.94328189       3.54583105      12.00029739       0.00000000       0.00000000       0.00000000
Cu       3.30197698       8.09922701       0.36113288       0.00000000       0.00000000       0.00000000
Cu       2.05556402       7.28074635       2.31963612       0.00000000       0.00000000       0.00000000
Cu       4.87967864       7.84446459       4.55501307       0.00000000       0.00000000       0.00000000
Cu       3.68126383       6.94300524       6.49056290       0.00000000       0.00000000       0.00000000
Cu       2.02836414       5.03502375       6.09443475       0.00000000       0.00000000       0.00000000
Cu      11.02127934       9.69309529      11.53212189       0.00000000       0.00000000       0.00000000
145
Lattice="11.400361 0.0 0.0 0.0 12.098904 0.0 0.0 0.0 12.816801" Properties=species:S:1:pos:R:3:forces:R:3 label=508 label_name=1_cut_0_3_4_N145.vasp_relaxed.vasp virial="0.0 0.0 0.0 0.0 0.0 0.0 0.0 0.0 0.0" energy=0.0 stress="0.0 0.0 0.0 0.0 0.0 0.0 0.0 0.0 0.0" pbc="T T T"
Cu       0.80436600       2.26856920       0.75765984       0.00000000       0.00000000       0.00000000
Cu       6.02264567       0.74507463      12.15011820       0.00000000       0.00000000       0.00000000
Cu       9.62406968       3.74440444       2.51811141       0.00000000       0.00000000       0.00000000
Cu       5.65329718       3.00035627       3.80467824       0.00000000       0.00000000       0.00000000
Cu       7.84658808       3.82400599       6.59772103       0.00000000       0.00000000       0.00000000
Cu       6.39233917       2.86821246       8.29630422       0.00000000       0.00000000       0.00000000
Cu       8.71621519       3.89583857      11.10138612       0.00000000       0.00000000       0.00000000
Cu       7.44607321       1.73223406      10.45365126       0.00000000       0.00000000       0.00000000
Cu       7.27625266       2.88233498      12.70879661       0.00000000       0.00000000       0.00000000
Cu       6.87403769       5.08242931       4.35567139       0.00000000       0.00000000       0.00000000
Cu       9.04033296       5.90934042       7.22242685       0.00000000       0.00000000       0.00000000
Cu       7.59425868       4.95211308       8.90558870       0.00000000       0.00000000       0.00000000
Cu       7.34811907       6.00185226      11.34409137       0.00000000       0.00000000       0.00000000
Cu       9.64476594       8.11064041       3.08209384       0.00000000       0.00000000       0.00000000
Cu       8.09738225       7.14062185       4.91383745       0.00000000       0.00000000       0.00000000
Cu       8.40552816       6.07478837       2.56251925       0.00000000       0.00000000       0.00000000
Cu       7.77365804       8.22321614       7.34673348       0.00000000       0.00000000       0.00000000
Cu       5.17747642       0.78696851       7.71901922       0.00000000       0.00000000       0.00000000
Cu       6.88625623       0.62276633       3.72300590       0.00000000       0.00000000       0.00000000
Cu       5.27026617       8.47212117       6.98202343       0.00000000       0.00000000       0.00000000
Cu       3.80155425       7.50109795       8.71303142       0.00000000       0.00000000       0.00000000
Cu       6.02704753       8.42497136      11.35138886       0.00000000       0.00000000       0.00000000
Cu       7.16914617       7.16493901       0.65959658       0.00000000       0.00000000       0.00000000
Cu       8.19540904      10.40146270       3.51219887       0.00000000       0.00000000       0.00000000
Cu       4.22329095       9.66421283       4.88918530       0.00000000       0.00000000       0.00000000
Cu       6.64834176       1.75221021       5.98422196       0.00000000       0.00000000       0.00000000
Cu       6.45916206      10.56585265       7.55518921       0.00000000       0.00000000       0.00000000
Cu       4.76058244      10.72889341      11.56601170       0.00000000       0.00000000       0.00000000
Cu       5.87905051       9.50712030       0.85084628       0.00000000       0.00000000       0.00000000
Cu       7.92673638      11.51411560       5.84202784       0.00000000       0.00000000       0.00000000
Cu       3.70782321      11.91773254       9.45827296       0.00000000       0.00000000       0.00000000
Cu       7.10832950      11.60606199       1.43850396       0.00000000       0.00000000       0.00000000
Cu       8.32383758       1.62432943       2.02404543       0.00000000       0.00000000       0.00000000
Cu       4.98518270       9.60760608       9.27246459       0.00000000       0.00000000       0.00000000
Cu       6.31683102       7.27064685       9.06833282       0.00000000       0.00000000       0.00000000
Cu       8.46378120       8.21630822      11.74882973       0.00000000       0.00000000       0.00000000
Cu       9.61304437       5.39036234       0.28673701       0.00000000       0.00000000       0.00000000
Cu      10.76951820       5.71083365       3.32622492       0.00000000       0.00000000       0.00000000
Cu       9.28917009       4.78420291       4.92359466       0.00000000       0.00000000       0.00000000
Cu      10.08551447       4.71778215       9.35343854       0.00000000       0.00000000       0.00000000
Cu      11.14151164       6.73174784      10.21957516       0.00000000       0.00000000       0.00000000
Cu      10.49296795       6.87268835       5.56387354       0.00000000       0.00000000       0.00000000
Cu      10.22814766       7.97515615       7.88390219       0.00000000       0.00000000       0.00000000
Cu       9.75040262       2.65700598      13.16108968       0.00000000       0.00000000       0.00000000
Cu       8.74566441       7.01057134       9.56579960       0.00000000       0.00000000       0.00000000
Cu       9.96535446       9.13108162      10.12002855       0.00000000       0.00000000       0.00000000
Cu       9.75259970      10.33111037      12.34423666       0.00000000       0.00000000       0.00000000
Cu      10.75389712       7.78492995      -0.28406620       0.00000000       0.00000000       0.00000000
Cu       8.69806543      11.47758136      10.24244072       0.00000000       0.00000000       0.00000000
Cu      10.16416628       0.31635359       8.55426915       0.00000000       0.00000000       0.00000000
Cu      10.57000314       2.47507643       4.73731840       0.00000000       0.00000000       0.00000000
Cu       9.22484685       9.17361026       5.64233906       0.00000000       0.00000000       0.00000000
Cu       8.88033379       2.65047238       8.75519541       0.00000000       0.00000000       0.00000000
Cu      10.33006163       3.59297447       7.05964696       0.00000000       0.00000000       0.00000000
Cu       8.11134280       2.74133927       4.24857981       0.00000000       0.00000000       0.00000000
Cu      10.66374218      10.13508015       3.99092290       0.00000000       0.00000000       0.00000000
Cu       6.73398679       9.43777427       5.25014405       0.00000000       0.00000000       0.00000000
Cu       8.95885713      10.31583407       7.95557640       0.00000000       0.00000000       0.00000000
Cu       7.48387246       9.38413247       9.64497330       0.00000000       0.00000000       0.00000000
Cu       7.26215734      10.53109363      11.95289613       0.00000000       0.00000000       0.00000000
Cu       8.42049390       9.27742170       1.21553528       0.00000000       0.00000000       0.00000000
Cu      10.41313089      11.27629434       6.26977966       0.00000000       0.00000000       0.00000000
Cu       6.20677206      11.71528742       9.85155351       0.00000000       0.00000000       0.00000000
Cu       9.66009231      11.40254027       1.76305909       0.00000000       0.00000000       0.00000000
Cu      10.81643757       1.33041418       2.45037100       0.00000000       0.00000000       0.00000000
Cu       9.37378709       0.37497249       4.13439392       0.00000000       0.00000000       0.00000000
Cu       9.12324390       1.51227481       6.43311471       0.00000000       0.00000000       0.00000000
Cu       7.66835747       0.56181250       8.13990381       0.00000000       0.00000000       0.00000000
Cu       9.91549057       1.46759278      10.84892398       0.00000000       0.00000000       0.00000000
Cu       8.54594552       0.52502657      12.57133056       0.00000000       0.00000000       0.00000000
Cu       5.54502643       7.36583497       4.65376941       0.00000000       0.00000000       0.00000000
Cu       0.67644864      11.05252786       2.33034478       0.00000000       0.00000000       0.00000000
Cu       6.99004618       8.33070878       2.93510209       0.00000000       0.00000000       0.00000000
Cu       4.87845379       6.30676277      10.77370983       0.00000000       0.00000000       0.00000000
Cu       2.95144321      12.00609088       5.02199601       0.00000000       0.00000000       0.00000000
Cu       2.01771563      12.05257721       0.60306784       0.00000000       0.00000000       0.00000000
Cu       3.32662604       2.08248964       1.17016929       0.00000000       0.00000000       0.00000000
Cu       1.91776006       1.08310001       2.88268358       0.00000000       0.00000000       0.00000000
Cu       1.68830601       2.23899661       5.15744558       0.00000000       0.00000000       0.00000000
Cu       0.21908863       1.28151635       6.85864562       0.00000000       0.00000000       0.00000000
Cu       0.72267856       9.87018955       0.14766229       0.00000000       0.00000000       0.00000000
Cu       2.44845346       2.14684456       9.61826475       0.00000000       0.00000000       0.00000000
Cu       4.60195384       4.23143995       1.66825162       0.00000000       0.00000000       0.00000000
Cu       0.64957368       3.39938856       3.07631555       0.00000000       0.00000000       0.00000000
Cu       2.89754672       4.31283794       5.76745213       0.00000000       0.00000000       0.00000000
Cu       1.43359267       3.35993453       7.47613156       0.00000000       0.00000000       0.00000000
Cu       3.67479178       4.23796928      10.15633130       0.00000000       0.00000000       0.00000000
Cu       2.24819285       3.26151068      11.88144853       0.00000000       0.00000000       0.00000000
Cu       0.96257430       1.15018827      11.36989823       0.00000000       0.00000000       0.00000000
Cu       3.18204715       6.48576435       1.96187798       0.00000000       0.00000000       0.00000000
Cu      -0.20020674      11.22185838      10.70271562       0.00000000       0.00000000       0.00000000
Cu       1.48939636      11.05251986       6.74076975       0.00000000       0.00000000       0.00000000
Cu      -0.01888623       2.39193947       9.16384700       0.00000000       0.00000000       0.00000000
Cu       1.98438511       4.39134532       1.35385124       0.00000000       0.00000000       0.00000000
Cu       0.39165944       4.54427250       5.39411303       0.00000000       0.00000000       0.00000000
Cu       1.17759163       4.47934819       9.78151313       0.00000000       0.00000000       0.00000000
Cu      -0.23717100       3.50094163      11.45219049       0.00000000       0.00000000       0.00000000
Cu       0.59961989       6.65006263       1.58189075       0.00000000       0.00000000       0.00000000
Cu       0.03147094      10.08704632       8.44479197       0.00000000       0.00000000       0.00000000
Cu       1.58365545       6.62788086       6.01586875       0.00000000       0.00000000       0.00000000
Cu       1.87794050       8.75320070       2.16337789       0.00000000       0.00000000       0.00000000
Cu       0.57279707       7.79675781       3.92056689       0.00000000       0.00000000       0.00000000
Cu       0.28751854       8.94885176       6.19009419       0.00000000       0.00000000       0.00000000
Cu       0.96686133       8.82003471      10.69756950       0.00000000       0.00000000       0.00000000
Cu       2.05424591       7.62404861      -0.11501438       0.00000000       0.00000000       0.00000000
Cu       3.16301114      10.85196473       2.74327399       0.00000000       0.00000000       0.00000000
Cu       0.12348700       5.68421807       7.70498038       0.00000000       0.00000000       0.00000000
Cu       1.84434568       5.49105996       3.69842162       0.00000000       0.00000000       0.00000000
Cu       4.09079492       6.39623472       6.37089018       0.00000000       0.00000000       0.00000000
Cu       2.62958466       5.43881641       8.08306901       0.00000000       0.00000000       0.00000000
Cu       4.18082601       2.00790723       5.55950763       0.00000000       0.00000000       0.00000000
Cu       2.70675591       1.04628259       7.29717563       0.00000000       0.00000000       0.00000000
Cu       4.94130264       1.91537052      10.01667653       0.00000000       0.00000000       0.00000000
Cu       3.49872545       0.94819516      11.73512759       0.00000000       0.00000000       0.00000000
Cu       7.15267048       4.03842953       2.03701193       0.00000000       0.00000000       0.00000000
Cu       3.15784119       3.20514160       3.42485123       0.00000000       0.00000000       0.00000000
Cu       4.40700470       0.86675699       3.30057621       0.00000000       0.00000000       0.00000000
Cu       5.39907448       4.08919072       6.12138371       0.00000000       0.00000000       0.00000000
Cu       6.16775436       4.00396752      10.58616360       0.00000000       0.00000000       0.00000000
Cu       4.76794898       3.08673629      12.29428506       0.00000000       0.00000000       0.00000000
Cu       5.74737264       6.27561011       2.34934724       0.00000000       0.00000000       0.00000000
Cu       4.34061793       5.28251399       4.04737003       0.00000000       0.00000000       0.00000000