(written by ASE)

108 atoms
1 atom types

0.0           10.8447752115  xlo xhi
0.0           10.8447752115  ylo yhi
0.0           10.8447752115  zlo zhi

Atoms # atomic

     1   1   0.0095053942999999991   0.0095053942999999991   0.0095053942999999991
     2   1   0.0095053942999999991   0.0095053942999999991      3.6244304648000001
     3   1   0.0095053942999999991      3.6244304648000001   0.0095053942999999991
     4   1   0.0095053942999999991      3.6244304648000001      3.6244304648000001
     5   1      3.6244304648000001   0.0095053942999999991   0.0095053942999999991
     6   1      3.6244304648000001   0.0095053942999999991      3.6244304648000001
     7   1      3.6244304648000001      3.6244304648000001   0.0095053942999999991
     8   1      3.6244304648000001      3.6244304648000001      3.6244304648000001
     9   1   0.0095053942999999991      1.8169679295000001      1.8169679295000001
    10   1      3.6244304648000001      1.8169679295000001      1.8169679295000001
    11   1      1.8169679295000001   0.0095053942999999991      1.8169679295000001
    12   1      1.8169679295000001      3.6244304648000001      1.8169679295000001
    13   1      1.8169679295000001      1.8169679295000001   0.0095053942999999991
    14   1      1.8169679295000001      1.8169679295000001      3.6244304648000001
    15   1      7.2393555352000014   0.0095053942999999991   0.0095053942999999991
    16   1      7.2393555352000014   0.0095053942999999991      3.6244304648000001
    17   1      7.2393555352000014      3.6244304648000001   0.0095053942999999991
    18   1      7.2393555352000014      3.6244304648000001      3.6244304648000001
    19   1      7.2393555352000014      1.8169679295000001      1.8169679295000001
    20   1      5.4318929999999996   0.0095053942999999991      1.8169679295000001
    21   1      5.4318929999999996      3.6244304648000001      1.8169679295000001
    22   1      9.0468180705000005   0.0095053942999999991      1.8169679295000001
    23   1      9.0468180705000005      3.6244304648000001      1.8169679295000001
    24   1      5.4318929999999996      1.8169679295000001   0.0095053942999999991
    25   1      5.4318929999999996      1.8169679295000001      3.6244304648000001
    26   1      9.0468180705000005      1.8169679295000001   0.0095053942999999991
    27   1      9.0468180705000005      1.8169679295000001      3.6244304648000001
    28   1   0.0095053942999999991      7.2393555352000014   0.0095053942999999991
    29   1   0.0095053942999999991      7.2393555352000014      3.6244304648000001
    30   1      3.6244304648000001      7.2393555352000014   0.0095053942999999991
    31   1      3.6244304648000001      7.2393555352000014      3.6244304648000001
    32   1   0.0095053942999999991      5.4318929999999996      1.8169679295000001
    33   1   0.0095053942999999991      9.0468180705000005      1.8169679295000001
    34   1      3.6244304648000001      5.4318929999999996      1.8169679295000001
    35   1      3.6244304648000001      9.0468180705000005      1.8169679295000001
    36   1      1.8169679295000001      7.2393555352000014      1.8169679295000001
    37   1      1.8169679295000001      5.4318929999999996   0.0095053942999999991
    38   1      1.8169679295000001      5.4318929999999996      3.6244304648000001
    39   1      1.8169679295000001      9.0468180705000005   0.0095053942999999991
    40   1      1.8169679295000001      9.0468180705000005      3.6244304648000001
    41   1      7.2393555352000014      7.2393555352000014   0.0095053942999999991
    42   1      7.2393555352000014      7.2393555352000014      3.6244304648000001
    43   1      7.2393555352000014      5.4318929999999996      1.8169679295000001
    44   1      7.2393555352000014      9.0468180705000005      1.8169679295000001
    45   1      5.4318929999999996      7.2393555352000014      1.8169679295000001
    46   1      9.0468180705000005      7.2393555352000014      1.8169679295000001
    47   1      5.4318929999999996      5.4318929999999996   0.0095053942999999991
    48   1      5.4318929999999996      5.4318929999999996      3.6244304648000001
    49   1      5.4318929999999996      9.0468180705000005   0.0095053942999999991
    50   1      5.4318929999999996      9.0468180705000005      3.6244304648000001
    51   1      9.0468180705000005      5.4318929999999996   0.0095053942999999991
    52   1      9.0468180705000005      5.4318929999999996      3.6244304648000001
    53   1      9.0468180705000005      9.0468180705000005   0.0095053942999999991
    54   1      9.0468180705000005      9.0468180705000005      3.6244304648000001
    55   1   0.0095053942999999991   0.0095053942999999991      7.2393555352000014
    56   1   0.0095053942999999991      3.6244304648000001      7.2393555352000014
    57   1      3.6244304648000001   0.0095053942999999991      7.2393555352000014
    58   1      3.6244304648000001      3.6244304648000001      7.2393555352000014
    59   1   0.0095053942999999991      1.8169679295000001      5.4318929999999996
    60   1   0.0095053942999999991      1.8169679295000001      9.0468180705000005
    61   1      3.6244304648000001      1.8169679295000001      5.4318929999999996
    62   1      3.6244304648000001      1.8169679295000001      9.0468180705000005
    63   1      1.8169679295000001   0.0095053942999999991      5.4318929999999996
    64   1      1.8169679295000001   0.0095053942999999991      9.0468180705000005
    65   1      1.8169679295000001      3.6244304648000001      5.4318929999999996
    66   1      1.8169679295000001      3.6244304648000001      9.0468180705000005
    67   1      1.8169679295000001      1.8169679295000001      7.2393555352000014
    68   1      7.2393555352000014   0.0095053942999999991      7.2393555352000014
    69   1      7.2393555352000014      3.6244304648000001      7.2393555352000014
    70   1      7.2393555352000014      1.8169679295000001      5.4318929999999996
    71   1      7.2393555352000014      1.8169679295000001      9.0468180705000005
    72   1      5.4318929999999996   0.0095053942999999991      5.4318929999999996
    73   1      5.4318929999999996   0.0095053942999999991      9.0468180705000005
    74   1      5.4318929999999996      3.6244304648000001      5.4318929999999996
    75   1      5.4318929999999996      3.6244304648000001      9.0468180705000005
    76   1      9.0468180705000005   0.0095053942999999991      5.4318929999999996
    77   1      9.0468180705000005   0.0095053942999999991      9.0468180705000005
    78   1      9.0468180705000005      3.6244304648000001      5.4318929999999996
    79   1      9.0468180705000005      3.6244304648000001      9.0468180705000005
    80   1      5.4318929999999996      1.8169679295000001      7.2393555352000014
    81   1      9.0468180705000005      1.8169679295000001      7.2393555352000014
    82   1   0.0095053942999999991      7.2393555352000014      7.2393555352000014
    83   1      3.6244304648000001      7.2393555352000014      7.2393555352000014
    84   1   0.0095053942999999991      5.4318929999999996      5.4318929999999996
    85   1   0.0095053942999999991      5.4318929999999996      9.0468180705000005
    86   1   0.0095053942999999991      9.0468180705000005      5.4318929999999996
    87   1   0.0095053942999999991      9.0468180705000005      9.0468180705000005
    88   1      3.6244304648000001      5.4318929999999996      5.4318929999999996
    89   1      3.6244304648000001      5.4318929999999996      9.0468180705000005
    90   1      3.6244304648000001      9.0468180705000005      5.4318929999999996
    91   1      3.6244304648000001      9.0468180705000005      9.0468180705000005
    92   1      1.8169679295000001      7.2393555352000014      5.4318929999999996
    93   1      1.8169679295000001      7.2393555352000014      9.0468180705000005
    94   1      1.8169679295000001      5.4318929999999996      7.2393555352000014
    95   1      1.8169679295000001      9.0468180705000005      7.2393555352000014
    96   1      7.2393555352000014      7.2393555352000014      7.2393555352000014
    97   1      7.2393555352000014      5.4318929999999996      5.4318929999999996
    98   1      7.2393555352000014      5.4318929999999996      9.0468180705000005
    99   1      7.2393555352000014      9.0468180705000005      5.4318929999999996
   100   1      7.2393555352000014      9.0468180705000005      9.0468180705000005
   101   1      5.4318929999999996      7.2393555352000014      5.4318929999999996
   102   1      5.4318929999999996      7.2393555352000014      9.0468180705000005
   103   1      9.0468180705000005      7.2393555352000014      5.4318929999999996
   104   1      9.0468180705000005      7.2393555352000014      9.0468180705000005
   105   1      5.4318929999999996      5.4318929999999996      7.2393555352000014
   106   1      5.4318929999999996      9.0468180705000005      7.2393555352000014
   107   1      9.0468180705000005      5.4318929999999996      7.2393555352000014
   108   1      9.0468180705000005      9.0468180705000005      7.2393555352000014
