(written by ASE)

108 atoms
1 atom types

0.0      11.057471861932003  xlo xhi
0.0      11.057471861932003  ylo yhi
0.0      11.057471861932003  zlo zhi

Atoms # atomic

     1   1   0.0096918219104590465   0.0096918219104590465   0.0096918219104590465
     2   1   0.0096918219104590465   0.0096918219104590465      3.6955157758877935
     3   1   0.0096918219104590465      3.6955157758877935   0.0096918219104590465
     4   1   0.0096918219104590465      3.6955157758877935      3.6955157758877935
     5   1      3.6955157758877935   0.0096918219104590465   0.0096918219104590465
     6   1      3.6955157758877935   0.0096918219104590465      3.6955157758877935
     7   1      3.6955157758877935      3.6955157758877935   0.0096918219104590465
     8   1      3.6955157758877935      3.6955157758877935      3.6955157758877935
     9   1   0.0096918219104590465      1.8526037988481456      1.8526037988481456
    10   1      3.6955157758877935      1.8526037988481456      1.8526037988481456
    11   1      1.8526037988481456   0.0096918219104590465      1.8526037988481456
    12   1      1.8526037988481456      3.6955157758877935      1.8526037988481456
    13   1      1.8526037988481456      1.8526037988481456   0.0096918219104590465
    14   1      1.8526037988481456      1.8526037988481456      3.6955157758877935
    15   1      7.3813397297631678   0.0096918219104590465   0.0096918219104590465
    16   1      7.3813397297631678   0.0096918219104590465      3.6955157758877935
    17   1      7.3813397297631678      3.6955157758877935   0.0096918219104590465
    18   1      7.3813397297631678      3.6955157758877935      3.6955157758877935
    19   1      7.3813397297631678      1.8526037988481456      1.8526037988481456
    20   1      5.5384277528254797   0.0096918219104590465      1.8526037988481456
    21   1      5.5384277528254797      3.6955157758877935      1.8526037988481456
    22   1       9.224251706802816   0.0096918219104590465      1.8526037988481456
    23   1       9.224251706802816      3.6955157758877935      1.8526037988481456
    24   1      5.5384277528254797      1.8526037988481456   0.0096918219104590465
    25   1      5.5384277528254797      1.8526037988481456      3.6955157758877935
    26   1       9.224251706802816      1.8526037988481456   0.0096918219104590465
    27   1       9.224251706802816      1.8526037988481456      3.6955157758877935
    28   1   0.0096918219104590465      7.3813397297631678   0.0096918219104590465
    29   1   0.0096918219104590465      7.3813397297631678      3.6955157758877935
    30   1      3.6955157758877935      7.3813397297631678   0.0096918219104590465
    31   1      3.6955157758877935      7.3813397297631678      3.6955157758877935
    32   1   0.0096918219104590465      5.5384277528254797      1.8526037988481456
    33   1   0.0096918219104590465       9.224251706802816      1.8526037988481456
    34   1      3.6955157758877935      5.5384277528254797      1.8526037988481456
    35   1      3.6955157758877935       9.224251706802816      1.8526037988481456
    36   1      1.8526037988481456      7.3813397297631678      1.8526037988481456
    37   1      1.8526037988481456      5.5384277528254797   0.0096918219104590465
    38   1      1.8526037988481456      5.5384277528254797      3.6955157758877935
    39   1      1.8526037988481456       9.224251706802816   0.0096918219104590465
    40   1      1.8526037988481456       9.224251706802816      3.6955157758877935
    41   1      7.3813397297631678      7.3813397297631678   0.0096918219104590465
    42   1      7.3813397297631678      7.3813397297631678      3.6955157758877935
    43   1      7.3813397297631678      5.5384277528254797      1.8526037988481456
    44   1      7.3813397297631678       9.224251706802816      1.8526037988481456
    45   1      5.5384277528254797      7.3813397297631678      1.8526037988481456
    46   1       9.224251706802816      7.3813397297631678      1.8526037988481456
    47   1      5.5384277528254797      5.5384277528254797   0.0096918219104590465
    48   1      5.5384277528254797      5.5384277528254797      3.6955157758877935
    49   1      5.5384277528254797       9.224251706802816   0.0096918219104590465
    50   1      5.5384277528254797       9.224251706802816      3.6955157758877935
    51   1       9.224251706802816      5.5384277528254797   0.0096918219104590465
    52   1       9.224251706802816      5.5384277528254797      3.6955157758877935
    53   1       9.224251706802816       9.224251706802816   0.0096918219104590465
    54   1       9.224251706802816       9.224251706802816      3.6955157758877935
    55   1   0.0096918219104590465   0.0096918219104590465      7.3813397297631678
    56   1   0.0096918219104590465      3.6955157758877935      7.3813397297631678
    57   1      3.6955157758877935   0.0096918219104590465      7.3813397297631678
    58   1      3.6955157758877935      3.6955157758877935      7.3813397297631678
    59   1   0.0096918219104590465      1.8526037988481456      5.5384277528254797
    60   1   0.0096918219104590465      1.8526037988481456       9.224251706802816
    61   1      3.6955157758877935      1.8526037988481456      5.5384277528254797
    62   1      3.6955157758877935      1.8526037988481456       9.224251706802816
    63   1      1.8526037988481456   0.0096918219104590465      5.5384277528254797
    64   1      1.8526037988481456   0.0096918219104590465       9.224251706802816
    65   1      1.8526037988481456      3.6955157758877935      5.5384277528254797
    66   1      1.8526037988481456      3.6955157758877935       9.224251706802816
    67   1      1.8526037988481456      1.8526037988481456      7.3813397297631678
    68   1      7.3813397297631678   0.0096918219104590465      7.3813397297631678
    69   1      7.3813397297631678      3.6955157758877935      7.3813397297631678
    70   1      7.3813397297631678      1.8526037988481456      5.5384277528254797
    71   1      7.3813397297631678      1.8526037988481456       9.224251706802816
    72   1      5.5384277528254797   0.0096918219104590465      5.5384277528254797
    73   1      5.5384277528254797   0.0096918219104590465       9.224251706802816
    74   1      5.5384277528254797      3.6955157758877935      5.5384277528254797
    75   1      5.5384277528254797      3.6955157758877935       9.224251706802816
    76   1       9.224251706802816   0.0096918219104590465      5.5384277528254797
    77   1       9.224251706802816   0.0096918219104590465       9.224251706802816
    78   1       9.224251706802816      3.6955157758877935      5.5384277528254797
    79   1       9.224251706802816      3.6955157758877935       9.224251706802816
    80   1      5.5384277528254797      1.8526037988481456      7.3813397297631678
    81   1       9.224251706802816      1.8526037988481456      7.3813397297631678
    82   1   0.0096918219104590465      7.3813397297631678      7.3813397297631678
    83   1      3.6955157758877935      7.3813397297631678      7.3813397297631678
    84   1   0.0096918219104590465      5.5384277528254797      5.5384277528254797
    85   1   0.0096918219104590465      5.5384277528254797       9.224251706802816
    86   1   0.0096918219104590465       9.224251706802816      5.5384277528254797
    87   1   0.0096918219104590465       9.224251706802816       9.224251706802816
    88   1      3.6955157758877935      5.5384277528254797      5.5384277528254797
    89   1      3.6955157758877935      5.5384277528254797       9.224251706802816
    90   1      3.6955157758877935       9.224251706802816      5.5384277528254797
    91   1      3.6955157758877935       9.224251706802816       9.224251706802816
    92   1      1.8526037988481456      7.3813397297631678      5.5384277528254797
    93   1      1.8526037988481456      7.3813397297631678       9.224251706802816
    94   1      1.8526037988481456      5.5384277528254797      7.3813397297631678
    95   1      1.8526037988481456       9.224251706802816      7.3813397297631678
    96   1      7.3813397297631678      7.3813397297631678      7.3813397297631678
    97   1      7.3813397297631678      5.5384277528254797      5.5384277528254797
    98   1      7.3813397297631678      5.5384277528254797       9.224251706802816
    99   1      7.3813397297631678       9.224251706802816      5.5384277528254797
   100   1      7.3813397297631678       9.224251706802816       9.224251706802816
   101   1      5.5384277528254797      7.3813397297631678      5.5384277528254797
   102   1      5.5384277528254797      7.3813397297631678       9.224251706802816
   103   1       9.224251706802816      7.3813397297631678      5.5384277528254797
   104   1       9.224251706802816      7.3813397297631678       9.224251706802816
   105   1      5.5384277528254797      5.5384277528254797      7.3813397297631678
   106   1      5.5384277528254797       9.224251706802816      7.3813397297631678
   107   1       9.224251706802816      5.5384277528254797      7.3813397297631678
   108   1       9.224251706802816       9.224251706802816      7.3813397297631678
