(written by ASE)

108 atoms
1 atom types

0.0      10.916597007970477  xlo xhi
0.0      10.916597007970477  ylo yhi
0.0      10.916597007970477  zlo zhi

Atoms # atomic

     1   1   0.0095683457657032532   0.0095683457657032532   0.0095683457657032532
     2   1   0.0095683457657032532   0.0095683457657032532      3.6484340150891956
     3   1   0.0095683457657032532      3.6484340150891956   0.0095683457657032532
     4   1   0.0095683457657032532      3.6484340150891956      3.6484340150891956
     5   1      3.6484340150891956   0.0095683457657032532   0.0095683457657032532
     6   1      3.6484340150891956   0.0095683457657032532      3.6484340150891956
     7   1      3.6484340150891956      3.6484340150891956   0.0095683457657032532
     8   1      3.6484340150891956      3.6484340150891956      3.6484340150891956
     9   1   0.0095683457657032532      1.8290011803771182      1.8290011803771182
    10   1      3.6484340150891956      1.8290011803771182      1.8290011803771182
    11   1      1.8290011803771182   0.0095683457657032532      1.8290011803771182
    12   1      1.8290011803771182      3.6484340150891956      1.8290011803771182
    13   1      1.8290011803771182      1.8290011803771182   0.0095683457657032532
    14   1      1.8290011803771182      1.8290011803771182      3.6484340150891956
    15   1      7.2872996843120275   0.0095683457657032532   0.0095683457657032532
    16   1      7.2872996843120275   0.0095683457657032532      3.6484340150891956
    17   1      7.2872996843120275      3.6484340150891956   0.0095683457657032532
    18   1      7.2872996843120275      3.6484340150891956      3.6484340150891956
    19   1      7.2872996843120275      1.8290011803771182      1.8290011803771182
    20   1      5.4678668497006102   0.0095683457657032532      1.8290011803771182
    21   1      5.4678668497006102      3.6484340150891956      1.8290011803771182
    22   1      9.1067325190241046   0.0095683457657032532      1.8290011803771182
    23   1      9.1067325190241046      3.6484340150891956      1.8290011803771182
    24   1      5.4678668497006102      1.8290011803771182   0.0095683457657032532
    25   1      5.4678668497006102      1.8290011803771182      3.6484340150891956
    26   1      9.1067325190241046      1.8290011803771182   0.0095683457657032532
    27   1      9.1067325190241046      1.8290011803771182      3.6484340150891956
    28   1   0.0095683457657032532      7.2872996843120275   0.0095683457657032532
    29   1   0.0095683457657032532      7.2872996843120275      3.6484340150891956
    30   1      3.6484340150891956      7.2872996843120275   0.0095683457657032532
    31   1      3.6484340150891956      7.2872996843120275      3.6484340150891956
    32   1   0.0095683457657032532      5.4678668497006102      1.8290011803771182
    33   1   0.0095683457657032532      9.1067325190241046      1.8290011803771182
    34   1      3.6484340150891956      5.4678668497006102      1.8290011803771182
    35   1      3.6484340150891956      9.1067325190241046      1.8290011803771182
    36   1      1.8290011803771182      7.2872996843120275      1.8290011803771182
    37   1      1.8290011803771182      5.4678668497006102   0.0095683457657032532
    38   1      1.8290011803771182      5.4678668497006102      3.6484340150891956
    39   1      1.8290011803771182      9.1067325190241046   0.0095683457657032532
    40   1      1.8290011803771182      9.1067325190241046      3.6484340150891956
    41   1      7.2872996843120275      7.2872996843120275   0.0095683457657032532
    42   1      7.2872996843120275      7.2872996843120275      3.6484340150891956
    43   1      7.2872996843120275      5.4678668497006102      1.8290011803771182
    44   1      7.2872996843120275      9.1067325190241046      1.8290011803771182
    45   1      5.4678668497006102      7.2872996843120275      1.8290011803771182
    46   1      9.1067325190241046      7.2872996843120275      1.8290011803771182
    47   1      5.4678668497006102      5.4678668497006102   0.0095683457657032532
    48   1      5.4678668497006102      5.4678668497006102      3.6484340150891956
    49   1      5.4678668497006102      9.1067325190241046   0.0095683457657032532
    50   1      5.4678668497006102      9.1067325190241046      3.6484340150891956
    51   1      9.1067325190241046      5.4678668497006102   0.0095683457657032532
    52   1      9.1067325190241046      5.4678668497006102      3.6484340150891956
    53   1      9.1067325190241046      9.1067325190241046   0.0095683457657032532
    54   1      9.1067325190241046      9.1067325190241046      3.6484340150891956
    55   1   0.0095683457657032532   0.0095683457657032532      7.2872996843120275
    56   1   0.0095683457657032532      3.6484340150891956      7.2872996843120275
    57   1      3.6484340150891956   0.0095683457657032532      7.2872996843120275
    58   1      3.6484340150891956      3.6484340150891956      7.2872996843120275
    59   1   0.0095683457657032532      1.8290011803771182      5.4678668497006102
    60   1   0.0095683457657032532      1.8290011803771182      9.1067325190241046
    61   1      3.6484340150891956      1.8290011803771182      5.4678668497006102
    62   1      3.6484340150891956      1.8290011803771182      9.1067325190241046
    63   1      1.8290011803771182   0.0095683457657032532      5.4678668497006102
    64   1      1.8290011803771182   0.0095683457657032532      9.1067325190241046
    65   1      1.8290011803771182      3.6484340150891956      5.4678668497006102
    66   1      1.8290011803771182      3.6484340150891956      9.1067325190241046
    67   1      1.8290011803771182      1.8290011803771182      7.2872996843120275
    68   1      7.2872996843120275   0.0095683457657032532      7.2872996843120275
    69   1      7.2872996843120275      3.6484340150891956      7.2872996843120275
    70   1      7.2872996843120275      1.8290011803771182      5.4678668497006102
    71   1      7.2872996843120275      1.8290011803771182      9.1067325190241046
    72   1      5.4678668497006102   0.0095683457657032532      5.4678668497006102
    73   1      5.4678668497006102   0.0095683457657032532      9.1067325190241046
    74   1      5.4678668497006102      3.6484340150891956      5.4678668497006102
    75   1      5.4678668497006102      3.6484340150891956      9.1067325190241046
    76   1      9.1067325190241046   0.0095683457657032532      5.4678668497006102
    77   1      9.1067325190241046   0.0095683457657032532      9.1067325190241046
    78   1      9.1067325190241046      3.6484340150891956      5.4678668497006102
    79   1      9.1067325190241046      3.6484340150891956      9.1067325190241046
    80   1      5.4678668497006102      1.8290011803771182      7.2872996843120275
    81   1      9.1067325190241046      1.8290011803771182      7.2872996843120275
    82   1   0.0095683457657032532      7.2872996843120275      7.2872996843120275
    83   1      3.6484340150891956      7.2872996843120275      7.2872996843120275
    84   1   0.0095683457657032532      5.4678668497006102      5.4678668497006102
    85   1   0.0095683457657032532      5.4678668497006102      9.1067325190241046
    86   1   0.0095683457657032532      9.1067325190241046      5.4678668497006102
    87   1   0.0095683457657032532      9.1067325190241046      9.1067325190241046
    88   1      3.6484340150891956      5.4678668497006102      5.4678668497006102
    89   1      3.6484340150891956      5.4678668497006102      9.1067325190241046
    90   1      3.6484340150891956      9.1067325190241046      5.4678668497006102
    91   1      3.6484340150891956      9.1067325190241046      9.1067325190241046
    92   1      1.8290011803771182      7.2872996843120275      5.4678668497006102
    93   1      1.8290011803771182      7.2872996843120275      9.1067325190241046
    94   1      1.8290011803771182      5.4678668497006102      7.2872996843120275
    95   1      1.8290011803771182      9.1067325190241046      7.2872996843120275
    96   1      7.2872996843120275      7.2872996843120275      7.2872996843120275
    97   1      7.2872996843120275      5.4678668497006102      5.4678668497006102
    98   1      7.2872996843120275      5.4678668497006102      9.1067325190241046
    99   1      7.2872996843120275      9.1067325190241046      5.4678668497006102
   100   1      7.2872996843120275      9.1067325190241046      9.1067325190241046
   101   1      5.4678668497006102      7.2872996843120275      5.4678668497006102
   102   1      5.4678668497006102      7.2872996843120275      9.1067325190241046
   103   1      9.1067325190241046      7.2872996843120275      5.4678668497006102
   104   1      9.1067325190241046      7.2872996843120275      9.1067325190241046
   105   1      5.4678668497006102      5.4678668497006102      7.2872996843120275
   106   1      5.4678668497006102      9.1067325190241046      7.2872996843120275
   107   1      9.1067325190241046      5.4678668497006102      7.2872996843120275
   108   1      9.1067325190241046      9.1067325190241046      7.2872996843120275
