(written by ASE)

108 atoms
1 atom types

0.0      10.987485987847176  xlo xhi
0.0      10.987485987847176  ylo yhi
0.0      10.987485987847176  zlo zhi

Atoms # atomic

     1   1   0.0096304796220637104   0.0096304796220637104   0.0096304796220637104
     2   1   0.0096304796220637104   0.0096304796220637104      3.6721258089044557
     3   1   0.0096304796220637104      3.6721258089044557   0.0096304796220637104
     4   1   0.0096304796220637104      3.6721258089044557      3.6721258089044557
     5   1      3.6721258089044557   0.0096304796220637104   0.0096304796220637104
     6   1      3.6721258089044557   0.0096304796220637104      3.6721258089044557
     7   1      3.6721258089044557      3.6721258089044557   0.0096304796220637104
     8   1      3.6721258089044557      3.6721258089044557      3.6721258089044557
     9   1   0.0096304796220637104      1.8408781442126019      1.8408781442126019
    10   1      3.6721258089044557      1.8408781442126019      1.8408781442126019
    11   1      1.8408781442126019   0.0096304796220637104      1.8408781442126019
    12   1      1.8408781442126019      3.6721258089044557      1.8408781442126019
    13   1      1.8408781442126019      1.8408781442126019   0.0096304796220637104
    14   1      1.8408781442126019      1.8408781442126019      3.6721258089044557
    15   1      7.3346211380855335   0.0096304796220637104   0.0096304796220637104
    16   1      7.3346211380855335   0.0096304796220637104      3.6721258089044557
    17   1      7.3346211380855335      3.6721258089044557   0.0096304796220637104
    18   1      7.3346211380855335      3.6721258089044557      3.6721258089044557
    19   1      7.3346211380855335      1.8408781442126019      1.8408781442126019
    20   1      5.5033734734949933   0.0096304796220637104      1.8408781442126019
    21   1      5.5033734734949933      3.6721258089044557      1.8408781442126019
    22   1      9.1658688027773874   0.0096304796220637104      1.8408781442126019
    23   1      9.1658688027773874      3.6721258089044557      1.8408781442126019
    24   1      5.5033734734949933      1.8408781442126019   0.0096304796220637104
    25   1      5.5033734734949933      1.8408781442126019      3.6721258089044557
    26   1      9.1658688027773874      1.8408781442126019   0.0096304796220637104
    27   1      9.1658688027773874      1.8408781442126019      3.6721258089044557
    28   1   0.0096304796220637104      7.3346211380855335   0.0096304796220637104
    29   1   0.0096304796220637104      7.3346211380855335      3.6721258089044557
    30   1      3.6721258089044557      7.3346211380855335   0.0096304796220637104
    31   1      3.6721258089044557      7.3346211380855335      3.6721258089044557
    32   1   0.0096304796220637104      5.5033734734949933      1.8408781442126019
    33   1   0.0096304796220637104      9.1658688027773874      1.8408781442126019
    34   1      3.6721258089044557      5.5033734734949933      1.8408781442126019
    35   1      3.6721258089044557      9.1658688027773874      1.8408781442126019
    36   1      1.8408781442126019      7.3346211380855335      1.8408781442126019
    37   1      1.8408781442126019      5.5033734734949933   0.0096304796220637104
    38   1      1.8408781442126019      5.5033734734949933      3.6721258089044557
    39   1      1.8408781442126019      9.1658688027773874   0.0096304796220637104
    40   1      1.8408781442126019      9.1658688027773874      3.6721258089044557
    41   1      7.3346211380855335      7.3346211380855335   0.0096304796220637104
    42   1      7.3346211380855335      7.3346211380855335      3.6721258089044557
    43   1      7.3346211380855335      5.5033734734949933      1.8408781442126019
    44   1      7.3346211380855335      9.1658688027773874      1.8408781442126019
    45   1      5.5033734734949933      7.3346211380855335      1.8408781442126019
    46   1      9.1658688027773874      7.3346211380855335      1.8408781442126019
    47   1      5.5033734734949933      5.5033734734949933   0.0096304796220637104
    48   1      5.5033734734949933      5.5033734734949933      3.6721258089044557
    49   1      5.5033734734949933      9.1658688027773874   0.0096304796220637104
    50   1      5.5033734734949933      9.1658688027773874      3.6721258089044557
    51   1      9.1658688027773874      5.5033734734949933   0.0096304796220637104
    52   1      9.1658688027773874      5.5033734734949933      3.6721258089044557
    53   1      9.1658688027773874      9.1658688027773874   0.0096304796220637104
    54   1      9.1658688027773874      9.1658688027773874      3.6721258089044557
    55   1   0.0096304796220637104   0.0096304796220637104      7.3346211380855335
    56   1   0.0096304796220637104      3.6721258089044557      7.3346211380855335
    57   1      3.6721258089044557   0.0096304796220637104      7.3346211380855335
    58   1      3.6721258089044557      3.6721258089044557      7.3346211380855335
    59   1   0.0096304796220637104      1.8408781442126019      5.5033734734949933
    60   1   0.0096304796220637104      1.8408781442126019      9.1658688027773874
    61   1      3.6721258089044557      1.8408781442126019      5.5033734734949933
    62   1      3.6721258089044557      1.8408781442126019      9.1658688027773874
    63   1      1.8408781442126019   0.0096304796220637104      5.5033734734949933
    64   1      1.8408781442126019   0.0096304796220637104      9.1658688027773874
    65   1      1.8408781442126019      3.6721258089044557      5.5033734734949933
    66   1      1.8408781442126019      3.6721258089044557      9.1658688027773874
    67   1      1.8408781442126019      1.8408781442126019      7.3346211380855335
    68   1      7.3346211380855335   0.0096304796220637104      7.3346211380855335
    69   1      7.3346211380855335      3.6721258089044557      7.3346211380855335
    70   1      7.3346211380855335      1.8408781442126019      5.5033734734949933
    71   1      7.3346211380855335      1.8408781442126019      9.1658688027773874
    72   1      5.5033734734949933   0.0096304796220637104      5.5033734734949933
    73   1      5.5033734734949933   0.0096304796220637104      9.1658688027773874
    74   1      5.5033734734949933      3.6721258089044557      5.5033734734949933
    75   1      5.5033734734949933      3.6721258089044557      9.1658688027773874
    76   1      9.1658688027773874   0.0096304796220637104      5.5033734734949933
    77   1      9.1658688027773874   0.0096304796220637104      9.1658688027773874
    78   1      9.1658688027773874      3.6721258089044557      5.5033734734949933
    79   1      9.1658688027773874      3.6721258089044557      9.1658688027773874
    80   1      5.5033734734949933      1.8408781442126019      7.3346211380855335
    81   1      9.1658688027773874      1.8408781442126019      7.3346211380855335
    82   1   0.0096304796220637104      7.3346211380855335      7.3346211380855335
    83   1      3.6721258089044557      7.3346211380855335      7.3346211380855335
    84   1   0.0096304796220637104      5.5033734734949933      5.5033734734949933
    85   1   0.0096304796220637104      5.5033734734949933      9.1658688027773874
    86   1   0.0096304796220637104      9.1658688027773874      5.5033734734949933
    87   1   0.0096304796220637104      9.1658688027773874      9.1658688027773874
    88   1      3.6721258089044557      5.5033734734949933      5.5033734734949933
    89   1      3.6721258089044557      5.5033734734949933      9.1658688027773874
    90   1      3.6721258089044557      9.1658688027773874      5.5033734734949933
    91   1      3.6721258089044557      9.1658688027773874      9.1658688027773874
    92   1      1.8408781442126019      7.3346211380855335      5.5033734734949933
    93   1      1.8408781442126019      7.3346211380855335      9.1658688027773874
    94   1      1.8408781442126019      5.5033734734949933      7.3346211380855335
    95   1      1.8408781442126019      9.1658688027773874      7.3346211380855335
    96   1      7.3346211380855335      7.3346211380855335      7.3346211380855335
    97   1      7.3346211380855335      5.5033734734949933      5.5033734734949933
    98   1      7.3346211380855335      5.5033734734949933      9.1658688027773874
    99   1      7.3346211380855335      9.1658688027773874      5.5033734734949933
   100   1      7.3346211380855335      9.1658688027773874      9.1658688027773874
   101   1      5.5033734734949933      7.3346211380855335      5.5033734734949933
   102   1      5.5033734734949933      7.3346211380855335      9.1658688027773874
   103   1      9.1658688027773874      7.3346211380855335      5.5033734734949933
   104   1      9.1658688027773874      7.3346211380855335      9.1658688027773874
   105   1      5.5033734734949933      5.5033734734949933      7.3346211380855335
   106   1      5.5033734734949933      9.1658688027773874      7.3346211380855335
   107   1      9.1658688027773874      5.5033734734949933      7.3346211380855335
   108   1      9.1658688027773874      9.1658688027773874      7.3346211380855335
