(written by ASE)

108 atoms
1 atom types

0.0      10.771989292166278  xlo xhi
0.0      10.771989292166278  ylo yhi
0.0      10.771989292166278  zlo zhi

Atoms # atomic

     1   1   0.0094415977851564879   0.0094415977851564879   0.0094415977851564879
     2   1   0.0094415977851564879   0.0094415977851564879      3.6001046951739162
     3   1   0.0094415977851564879      3.6001046951739162   0.0094415977851564879
     4   1   0.0094415977851564879      3.6001046951739162      3.6001046951739162
     5   1      3.6001046951739162   0.0094415977851564879   0.0094415977851564879
     6   1      3.6001046951739162   0.0094415977851564879      3.6001046951739162
     7   1      3.6001046951739162      3.6001046951739162   0.0094415977851564879
     8   1      3.6001046951739162      3.6001046951739162      3.6001046951739162
     9   1   0.0094415977851564879      1.8047731464298717      1.8047731464298717
    10   1      3.6001046951739162      1.8047731464298717      1.8047731464298717
    11   1      1.8047731464298717   0.0094415977851564879      1.8047731464298717
    12   1      1.8047731464298717      3.6001046951739162      1.8047731464298717
    13   1      1.8047731464298717      1.8047731464298717   0.0094415977851564879
    14   1      1.8047731464298717      1.8047731464298717      3.6001046951739162
    15   1      7.1907677924633475   0.0094415977851564879   0.0094415977851564879
    16   1      7.1907677924633475   0.0094415977851564879      3.6001046951739162
    17   1      7.1907677924633475      3.6001046951739162   0.0094415977851564879
    18   1      7.1907677924633475      3.6001046951739162      3.6001046951739162
    19   1      7.1907677924633475      1.8047731464298717      1.8047731464298717
    20   1      5.3954362438186312   0.0094415977851564879      1.8047731464298717
    21   1      5.3954362438186312      3.6001046951739162      1.8047731464298717
    22   1      8.9860993412073924   0.0094415977851564879      1.8047731464298717
    23   1      8.9860993412073924      3.6001046951739162      1.8047731464298717
    24   1      5.3954362438186312      1.8047731464298717   0.0094415977851564879
    25   1      5.3954362438186312      1.8047731464298717      3.6001046951739162
    26   1      8.9860993412073924      1.8047731464298717   0.0094415977851564879
    27   1      8.9860993412073924      1.8047731464298717      3.6001046951739162
    28   1   0.0094415977851564879      7.1907677924633475   0.0094415977851564879
    29   1   0.0094415977851564879      7.1907677924633475      3.6001046951739162
    30   1      3.6001046951739162      7.1907677924633475   0.0094415977851564879
    31   1      3.6001046951739162      7.1907677924633475      3.6001046951739162
    32   1   0.0094415977851564879      5.3954362438186312      1.8047731464298717
    33   1   0.0094415977851564879      8.9860993412073924      1.8047731464298717
    34   1      3.6001046951739162      5.3954362438186312      1.8047731464298717
    35   1      3.6001046951739162      8.9860993412073924      1.8047731464298717
    36   1      1.8047731464298717      7.1907677924633475      1.8047731464298717
    37   1      1.8047731464298717      5.3954362438186312   0.0094415977851564879
    38   1      1.8047731464298717      5.3954362438186312      3.6001046951739162
    39   1      1.8047731464298717      8.9860993412073924   0.0094415977851564879
    40   1      1.8047731464298717      8.9860993412073924      3.6001046951739162
    41   1      7.1907677924633475      7.1907677924633475   0.0094415977851564879
    42   1      7.1907677924633475      7.1907677924633475      3.6001046951739162
    43   1      7.1907677924633475      5.3954362438186312      1.8047731464298717
    44   1      7.1907677924633475      8.9860993412073924      1.8047731464298717
    45   1      5.3954362438186312      7.1907677924633475      1.8047731464298717
    46   1      8.9860993412073924      7.1907677924633475      1.8047731464298717
    47   1      5.3954362438186312      5.3954362438186312   0.0094415977851564879
    48   1      5.3954362438186312      5.3954362438186312      3.6001046951739162
    49   1      5.3954362438186312      8.9860993412073924   0.0094415977851564879
    50   1      5.3954362438186312      8.9860993412073924      3.6001046951739162
    51   1      8.9860993412073924      5.3954362438186312   0.0094415977851564879
    52   1      8.9860993412073924      5.3954362438186312      3.6001046951739162
    53   1      8.9860993412073924      8.9860993412073924   0.0094415977851564879
    54   1      8.9860993412073924      8.9860993412073924      3.6001046951739162
    55   1   0.0094415977851564879   0.0094415977851564879      7.1907677924633475
    56   1   0.0094415977851564879      3.6001046951739162      7.1907677924633475
    57   1      3.6001046951739162   0.0094415977851564879      7.1907677924633475
    58   1      3.6001046951739162      3.6001046951739162      7.1907677924633475
    59   1   0.0094415977851564879      1.8047731464298717      5.3954362438186312
    60   1   0.0094415977851564879      1.8047731464298717      8.9860993412073924
    61   1      3.6001046951739162      1.8047731464298717      5.3954362438186312
    62   1      3.6001046951739162      1.8047731464298717      8.9860993412073924
    63   1      1.8047731464298717   0.0094415977851564879      5.3954362438186312
    64   1      1.8047731464298717   0.0094415977851564879      8.9860993412073924
    65   1      1.8047731464298717      3.6001046951739162      5.3954362438186312
    66   1      1.8047731464298717      3.6001046951739162      8.9860993412073924
    67   1      1.8047731464298717      1.8047731464298717      7.1907677924633475
    68   1      7.1907677924633475   0.0094415977851564879      7.1907677924633475
    69   1      7.1907677924633475      3.6001046951739162      7.1907677924633475
    70   1      7.1907677924633475      1.8047731464298717      5.3954362438186312
    71   1      7.1907677924633475      1.8047731464298717      8.9860993412073924
    72   1      5.3954362438186312   0.0094415977851564879      5.3954362438186312
    73   1      5.3954362438186312   0.0094415977851564879      8.9860993412073924
    74   1      5.3954362438186312      3.6001046951739162      5.3954362438186312
    75   1      5.3954362438186312      3.6001046951739162      8.9860993412073924
    76   1      8.9860993412073924   0.0094415977851564879      5.3954362438186312
    77   1      8.9860993412073924   0.0094415977851564879      8.9860993412073924
    78   1      8.9860993412073924      3.6001046951739162      5.3954362438186312
    79   1      8.9860993412073924      3.6001046951739162      8.9860993412073924
    80   1      5.3954362438186312      1.8047731464298717      7.1907677924633475
    81   1      8.9860993412073924      1.8047731464298717      7.1907677924633475
    82   1   0.0094415977851564879      7.1907677924633475      7.1907677924633475
    83   1      3.6001046951739162      7.1907677924633475      7.1907677924633475
    84   1   0.0094415977851564879      5.3954362438186312      5.3954362438186312
    85   1   0.0094415977851564879      5.3954362438186312      8.9860993412073924
    86   1   0.0094415977851564879      8.9860993412073924      5.3954362438186312
    87   1   0.0094415977851564879      8.9860993412073924      8.9860993412073924
    88   1      3.6001046951739162      5.3954362438186312      5.3954362438186312
    89   1      3.6001046951739162      5.3954362438186312      8.9860993412073924
    90   1      3.6001046951739162      8.9860993412073924      5.3954362438186312
    91   1      3.6001046951739162      8.9860993412073924      8.9860993412073924
    92   1      1.8047731464298717      7.1907677924633475      5.3954362438186312
    93   1      1.8047731464298717      7.1907677924633475      8.9860993412073924
    94   1      1.8047731464298717      5.3954362438186312      7.1907677924633475
    95   1      1.8047731464298717      8.9860993412073924      7.1907677924633475
    96   1      7.1907677924633475      7.1907677924633475      7.1907677924633475
    97   1      7.1907677924633475      5.3954362438186312      5.3954362438186312
    98   1      7.1907677924633475      5.3954362438186312      8.9860993412073924
    99   1      7.1907677924633475      8.9860993412073924      5.3954362438186312
   100   1      7.1907677924633475      8.9860993412073924      8.9860993412073924
   101   1      5.3954362438186312      7.1907677924633475      5.3954362438186312
   102   1      5.3954362438186312      7.1907677924633475      8.9860993412073924
   103   1      8.9860993412073924      7.1907677924633475      5.3954362438186312
   104   1      8.9860993412073924      7.1907677924633475      8.9860993412073924
   105   1      5.3954362438186312      5.3954362438186312      7.1907677924633475
   106   1      5.3954362438186312      8.9860993412073924      7.1907677924633475
   107   1      8.9860993412073924      5.3954362438186312      7.1907677924633475
   108   1      8.9860993412073924      8.9860993412073924      7.1907677924633475
