(written by ASE)

108 atoms
1 atom types

0.0      10.623391149328265  xlo xhi
0.0      10.623391149328265  ylo yhi
0.0      10.623391149328265  zlo zhi

Atoms # atomic

     1   1   0.0093113522141440776   0.0093113522141440776   0.0093113522141440776
     2   1   0.0093113522141440776   0.0093113522141440776      3.5504417353235658
     3   1   0.0093113522141440776      3.5504417353235658   0.0093113522141440776
     4   1   0.0093113522141440776      3.5504417353235658      3.5504417353235658
     5   1      3.5504417353235658   0.0093113522141440776   0.0093113522141440776
     6   1      3.5504417353235658   0.0093113522141440776      3.5504417353235658
     7   1      3.5504417353235658      3.5504417353235658   0.0093113522141440776
     8   1      3.5504417353235658      3.5504417353235658      3.5504417353235658
     9   1   0.0093113522141440776      1.7798765437198756      1.7798765437198756
    10   1      3.5504417353235658      1.7798765437198756      1.7798765437198756
    11   1      1.7798765437198756   0.0093113522141440776      1.7798765437198756
    12   1      1.7798765437198756      3.5504417353235658      1.7798765437198756
    13   1      1.7798765437198756      1.7798765437198756   0.0093113522141440776
    14   1      1.7798765437198756      1.7798765437198756      3.5504417353235658
    15   1        7.09157211833503   0.0093113522141440776   0.0093113522141440776
    16   1        7.09157211833503   0.0093113522141440776      3.5504417353235658
    17   1        7.09157211833503      3.5504417353235658   0.0093113522141440776
    18   1        7.09157211833503      3.5504417353235658      3.5504417353235658
    19   1        7.09157211833503      1.7798765437198756      1.7798765437198756
    20   1      5.3210069268292965   0.0093113522141440776      1.7798765437198756
    21   1      5.3210069268292965      3.5504417353235658      1.7798765437198756
    22   1      8.8621373099387206   0.0093113522141440776      1.7798765437198756
    23   1      8.8621373099387206      3.5504417353235658      1.7798765437198756
    24   1      5.3210069268292965      1.7798765437198756   0.0093113522141440776
    25   1      5.3210069268292965      1.7798765437198756      3.5504417353235658
    26   1      8.8621373099387206      1.7798765437198756   0.0093113522141440776
    27   1      8.8621373099387206      1.7798765437198756      3.5504417353235658
    28   1   0.0093113522141440776        7.09157211833503   0.0093113522141440776
    29   1   0.0093113522141440776        7.09157211833503      3.5504417353235658
    30   1      3.5504417353235658        7.09157211833503   0.0093113522141440776
    31   1      3.5504417353235658        7.09157211833503      3.5504417353235658
    32   1   0.0093113522141440776      5.3210069268292965      1.7798765437198756
    33   1   0.0093113522141440776      8.8621373099387206      1.7798765437198756
    34   1      3.5504417353235658      5.3210069268292965      1.7798765437198756
    35   1      3.5504417353235658      8.8621373099387206      1.7798765437198756
    36   1      1.7798765437198756        7.09157211833503      1.7798765437198756
    37   1      1.7798765437198756      5.3210069268292965   0.0093113522141440776
    38   1      1.7798765437198756      5.3210069268292965      3.5504417353235658
    39   1      1.7798765437198756      8.8621373099387206   0.0093113522141440776
    40   1      1.7798765437198756      8.8621373099387206      3.5504417353235658
    41   1        7.09157211833503        7.09157211833503   0.0093113522141440776
    42   1        7.09157211833503        7.09157211833503      3.5504417353235658
    43   1        7.09157211833503      5.3210069268292965      1.7798765437198756
    44   1        7.09157211833503      8.8621373099387206      1.7798765437198756
    45   1      5.3210069268292965        7.09157211833503      1.7798765437198756
    46   1      8.8621373099387206        7.09157211833503      1.7798765437198756
    47   1      5.3210069268292965      5.3210069268292965   0.0093113522141440776
    48   1      5.3210069268292965      5.3210069268292965      3.5504417353235658
    49   1      5.3210069268292965      8.8621373099387206   0.0093113522141440776
    50   1      5.3210069268292965      8.8621373099387206      3.5504417353235658
    51   1      8.8621373099387206      5.3210069268292965   0.0093113522141440776
    52   1      8.8621373099387206      5.3210069268292965      3.5504417353235658
    53   1      8.8621373099387206      8.8621373099387206   0.0093113522141440776
    54   1      8.8621373099387206      8.8621373099387206      3.5504417353235658
    55   1   0.0093113522141440776   0.0093113522141440776        7.09157211833503
    56   1   0.0093113522141440776      3.5504417353235658        7.09157211833503
    57   1      3.5504417353235658   0.0093113522141440776        7.09157211833503
    58   1      3.5504417353235658      3.5504417353235658        7.09157211833503
    59   1   0.0093113522141440776      1.7798765437198756      5.3210069268292965
    60   1   0.0093113522141440776      1.7798765437198756      8.8621373099387206
    61   1      3.5504417353235658      1.7798765437198756      5.3210069268292965
    62   1      3.5504417353235658      1.7798765437198756      8.8621373099387206
    63   1      1.7798765437198756   0.0093113522141440776      5.3210069268292965
    64   1      1.7798765437198756   0.0093113522141440776      8.8621373099387206
    65   1      1.7798765437198756      3.5504417353235658      5.3210069268292965
    66   1      1.7798765437198756      3.5504417353235658      8.8621373099387206
    67   1      1.7798765437198756      1.7798765437198756        7.09157211833503
    68   1        7.09157211833503   0.0093113522141440776        7.09157211833503
    69   1        7.09157211833503      3.5504417353235658        7.09157211833503
    70   1        7.09157211833503      1.7798765437198756      5.3210069268292965
    71   1        7.09157211833503      1.7798765437198756      8.8621373099387206
    72   1      5.3210069268292965   0.0093113522141440776      5.3210069268292965
    73   1      5.3210069268292965   0.0093113522141440776      8.8621373099387206
    74   1      5.3210069268292965      3.5504417353235658      5.3210069268292965
    75   1      5.3210069268292965      3.5504417353235658      8.8621373099387206
    76   1      8.8621373099387206   0.0093113522141440776      5.3210069268292965
    77   1      8.8621373099387206   0.0093113522141440776      8.8621373099387206
    78   1      8.8621373099387206      3.5504417353235658      5.3210069268292965
    79   1      8.8621373099387206      3.5504417353235658      8.8621373099387206
    80   1      5.3210069268292965      1.7798765437198756        7.09157211833503
    81   1      8.8621373099387206      1.7798765437198756        7.09157211833503
    82   1   0.0093113522141440776        7.09157211833503        7.09157211833503
    83   1      3.5504417353235658        7.09157211833503        7.09157211833503
    84   1   0.0093113522141440776      5.3210069268292965      5.3210069268292965
    85   1   0.0093113522141440776      5.3210069268292965      8.8621373099387206
    86   1   0.0093113522141440776      8.8621373099387206      5.3210069268292965
    87   1   0.0093113522141440776      8.8621373099387206      8.8621373099387206
    88   1      3.5504417353235658      5.3210069268292965      5.3210069268292965
    89   1      3.5504417353235658      5.3210069268292965      8.8621373099387206
    90   1      3.5504417353235658      8.8621373099387206      5.3210069268292965
    91   1      3.5504417353235658      8.8621373099387206      8.8621373099387206
    92   1      1.7798765437198756        7.09157211833503      5.3210069268292965
    93   1      1.7798765437198756        7.09157211833503      8.8621373099387206
    94   1      1.7798765437198756      5.3210069268292965        7.09157211833503
    95   1      1.7798765437198756      8.8621373099387206        7.09157211833503
    96   1        7.09157211833503        7.09157211833503        7.09157211833503
    97   1        7.09157211833503      5.3210069268292965      5.3210069268292965
    98   1        7.09157211833503      5.3210069268292965      8.8621373099387206
    99   1        7.09157211833503      8.8621373099387206      5.3210069268292965
   100   1        7.09157211833503      8.8621373099387206      8.8621373099387206
   101   1      5.3210069268292965        7.09157211833503      5.3210069268292965
   102   1      5.3210069268292965        7.09157211833503      8.8621373099387206
   103   1      8.8621373099387206        7.09157211833503      5.3210069268292965
   104   1      8.8621373099387206        7.09157211833503      8.8621373099387206
   105   1      5.3210069268292965      5.3210069268292965        7.09157211833503
   106   1      5.3210069268292965      8.8621373099387206        7.09157211833503
   107   1      8.8621373099387206      5.3210069268292965        7.09157211833503
   108   1      8.8621373099387206      8.8621373099387206        7.09157211833503
