(written by ASE)

108 atoms
1 atom types

0.0       10.69820622800043  xlo xhi
0.0       10.69820622800043  ylo yhi
0.0       10.69820622800043  zlo zhi

Atoms # atomic

     1   1   0.0093769272775728087   0.0093769272775728087   0.0093769272775728087
     2   1   0.0093769272775728087   0.0093769272775728087      3.5754456699443824
     3   1   0.0093769272775728087      3.5754456699443824   0.0093769272775728087
     4   1   0.0093769272775728087      3.5754456699443824      3.5754456699443824
     5   1      3.5754456699443824   0.0093769272775728087   0.0093769272775728087
     6   1      3.5754456699443824   0.0093769272775728087      3.5754456699443824
     7   1      3.5754456699443824      3.5754456699443824   0.0093769272775728087
     8   1      3.5754456699443824      3.5754456699443824      3.5754456699443824
     9   1   0.0093769272775728087      1.7924112985616534      1.7924112985616534
    10   1      3.5754456699443824      1.7924112985616534      1.7924112985616534
    11   1      1.7924112985616534   0.0093769272775728087      1.7924112985616534
    12   1      1.7924112985616534      3.5754456699443824      1.7924112985616534
    13   1      1.7924112985616534      1.7924112985616534   0.0093769272775728087
    14   1      1.7924112985616534      1.7924112985616534      3.5754456699443824
    15   1      7.1415144125125449   0.0093769272775728087   0.0093769272775728087
    16   1      7.1415144125125449   0.0093769272775728087      3.5754456699443824
    17   1      7.1415144125125449      3.5754456699443824   0.0093769272775728087
    18   1      7.1415144125125449      3.5754456699443824      3.5754456699443824
    19   1      7.1415144125125449      1.7924112985616534      1.7924112985616534
    20   1      5.3584800412284626   0.0093769272775728087      1.7924112985616534
    21   1      5.3584800412284626      3.5754456699443824      1.7924112985616534
    22   1      8.9245487838952737   0.0093769272775728087      1.7924112985616534
    23   1      8.9245487838952737      3.5754456699443824      1.7924112985616534
    24   1      5.3584800412284626      1.7924112985616534   0.0093769272775728087
    25   1      5.3584800412284626      1.7924112985616534      3.5754456699443824
    26   1      8.9245487838952737      1.7924112985616534   0.0093769272775728087
    27   1      8.9245487838952737      1.7924112985616534      3.5754456699443824
    28   1   0.0093769272775728087      7.1415144125125449   0.0093769272775728087
    29   1   0.0093769272775728087      7.1415144125125449      3.5754456699443824
    30   1      3.5754456699443824      7.1415144125125449   0.0093769272775728087
    31   1      3.5754456699443824      7.1415144125125449      3.5754456699443824
    32   1   0.0093769272775728087      5.3584800412284626      1.7924112985616534
    33   1   0.0093769272775728087      8.9245487838952737      1.7924112985616534
    34   1      3.5754456699443824      5.3584800412284626      1.7924112985616534
    35   1      3.5754456699443824      8.9245487838952737      1.7924112985616534
    36   1      1.7924112985616534      7.1415144125125449      1.7924112985616534
    37   1      1.7924112985616534      5.3584800412284626   0.0093769272775728087
    38   1      1.7924112985616534      5.3584800412284626      3.5754456699443824
    39   1      1.7924112985616534      8.9245487838952737   0.0093769272775728087
    40   1      1.7924112985616534      8.9245487838952737      3.5754456699443824
    41   1      7.1415144125125449      7.1415144125125449   0.0093769272775728087
    42   1      7.1415144125125449      7.1415144125125449      3.5754456699443824
    43   1      7.1415144125125449      5.3584800412284626      1.7924112985616534
    44   1      7.1415144125125449      8.9245487838952737      1.7924112985616534
    45   1      5.3584800412284626      7.1415144125125449      1.7924112985616534
    46   1      8.9245487838952737      7.1415144125125449      1.7924112985616534
    47   1      5.3584800412284626      5.3584800412284626   0.0093769272775728087
    48   1      5.3584800412284626      5.3584800412284626      3.5754456699443824
    49   1      5.3584800412284626      8.9245487838952737   0.0093769272775728087
    50   1      5.3584800412284626      8.9245487838952737      3.5754456699443824
    51   1      8.9245487838952737      5.3584800412284626   0.0093769272775728087
    52   1      8.9245487838952737      5.3584800412284626      3.5754456699443824
    53   1      8.9245487838952737      8.9245487838952737   0.0093769272775728087
    54   1      8.9245487838952737      8.9245487838952737      3.5754456699443824
    55   1   0.0093769272775728087   0.0093769272775728087      7.1415144125125449
    56   1   0.0093769272775728087      3.5754456699443824      7.1415144125125449
    57   1      3.5754456699443824   0.0093769272775728087      7.1415144125125449
    58   1      3.5754456699443824      3.5754456699443824      7.1415144125125449
    59   1   0.0093769272775728087      1.7924112985616534      5.3584800412284626
    60   1   0.0093769272775728087      1.7924112985616534      8.9245487838952737
    61   1      3.5754456699443824      1.7924112985616534      5.3584800412284626
    62   1      3.5754456699443824      1.7924112985616534      8.9245487838952737
    63   1      1.7924112985616534   0.0093769272775728087      5.3584800412284626
    64   1      1.7924112985616534   0.0093769272775728087      8.9245487838952737
    65   1      1.7924112985616534      3.5754456699443824      5.3584800412284626
    66   1      1.7924112985616534      3.5754456699443824      8.9245487838952737
    67   1      1.7924112985616534      1.7924112985616534      7.1415144125125449
    68   1      7.1415144125125449   0.0093769272775728087      7.1415144125125449
    69   1      7.1415144125125449      3.5754456699443824      7.1415144125125449
    70   1      7.1415144125125449      1.7924112985616534      5.3584800412284626
    71   1      7.1415144125125449      1.7924112985616534      8.9245487838952737
    72   1      5.3584800412284626   0.0093769272775728087      5.3584800412284626
    73   1      5.3584800412284626   0.0093769272775728087      8.9245487838952737
    74   1      5.3584800412284626      3.5754456699443824      5.3584800412284626
    75   1      5.3584800412284626      3.5754456699443824      8.9245487838952737
    76   1      8.9245487838952737   0.0093769272775728087      5.3584800412284626
    77   1      8.9245487838952737   0.0093769272775728087      8.9245487838952737
    78   1      8.9245487838952737      3.5754456699443824      5.3584800412284626
    79   1      8.9245487838952737      3.5754456699443824      8.9245487838952737
    80   1      5.3584800412284626      1.7924112985616534      7.1415144125125449
    81   1      8.9245487838952737      1.7924112985616534      7.1415144125125449
    82   1   0.0093769272775728087      7.1415144125125449      7.1415144125125449
    83   1      3.5754456699443824      7.1415144125125449      7.1415144125125449
    84   1   0.0093769272775728087      5.3584800412284626      5.3584800412284626
    85   1   0.0093769272775728087      5.3584800412284626      8.9245487838952737
    86   1   0.0093769272775728087      8.9245487838952737      5.3584800412284626
    87   1   0.0093769272775728087      8.9245487838952737      8.9245487838952737
    88   1      3.5754456699443824      5.3584800412284626      5.3584800412284626
    89   1      3.5754456699443824      5.3584800412284626      8.9245487838952737
    90   1      3.5754456699443824      8.9245487838952737      5.3584800412284626
    91   1      3.5754456699443824      8.9245487838952737      8.9245487838952737
    92   1      1.7924112985616534      7.1415144125125449      5.3584800412284626
    93   1      1.7924112985616534      7.1415144125125449      8.9245487838952737
    94   1      1.7924112985616534      5.3584800412284626      7.1415144125125449
    95   1      1.7924112985616534      8.9245487838952737      7.1415144125125449
    96   1      7.1415144125125449      7.1415144125125449      7.1415144125125449
    97   1      7.1415144125125449      5.3584800412284626      5.3584800412284626
    98   1      7.1415144125125449      5.3584800412284626      8.9245487838952737
    99   1      7.1415144125125449      8.9245487838952737      5.3584800412284626
   100   1      7.1415144125125449      8.9245487838952737      8.9245487838952737
   101   1      5.3584800412284626      7.1415144125125449      5.3584800412284626
   102   1      5.3584800412284626      7.1415144125125449      8.9245487838952737
   103   1      8.9245487838952737      7.1415144125125449      5.3584800412284626
   104   1      8.9245487838952737      7.1415144125125449      8.9245487838952737
   105   1      5.3584800412284626      5.3584800412284626      7.1415144125125449
   106   1      5.3584800412284626      8.9245487838952737      7.1415144125125449
   107   1      8.9245487838952737      5.3584800412284626      7.1415144125125449
   108   1      8.9245487838952737      8.9245487838952737      7.1415144125125449
