(written by ASE)

108 atoms
1 atom types

0.0      11.126582855268413  xlo xhi
0.0      11.126582855268413  ylo yhi
0.0      11.126582855268413  zlo zhi

Atoms # atomic

     1   1   0.0097523973700066671   0.0097523973700066671   0.0097523973700066671
     2   1   0.0097523973700066671   0.0097523973700066671      3.7186133491261444
     3   1   0.0097523973700066671      3.7186133491261444   0.0097523973700066671
     4   1   0.0097523973700066671      3.7186133491261444      3.7186133491261444
     5   1      3.7186133491261444   0.0097523973700066671   0.0097523973700066671
     6   1      3.7186133491261444   0.0097523973700066671      3.7186133491261444
     7   1      3.7186133491261444      3.7186133491261444   0.0097523973700066671
     8   1      3.7186133491261444      3.7186133491261444      3.7186133491261444
     9   1   0.0097523973700066671      1.8641828731967762      1.8641828731967762
    10   1      3.7186133491261444      1.8641828731967762      1.8641828731967762
    11   1      1.8641828731967762   0.0097523973700066671      1.8641828731967762
    12   1      1.8641828731967762      3.7186133491261444      1.8641828731967762
    13   1      1.8641828731967762      1.8641828731967762   0.0097523973700066671
    14   1      1.8641828731967762      1.8641828731967762      3.7186133491261444
    15   1      7.4274743007796848   0.0097523973700066671   0.0097523973700066671
    16   1      7.4274743007796848   0.0097523973700066671      3.7186133491261444
    17   1      7.4274743007796848      3.7186133491261444   0.0097523973700066671
    18   1      7.4274743007796848      3.7186133491261444      3.7186133491261444
    19   1      7.4274743007796848      1.8641828731967762      1.8641828731967762
    20   1      5.5730438249529133   0.0097523973700066671      1.8641828731967762
    21   1      5.5730438249529133      3.7186133491261444      1.8641828731967762
    22   1      9.2819047767090535   0.0097523973700066671      1.8641828731967762
    23   1      9.2819047767090535      3.7186133491261444      1.8641828731967762
    24   1      5.5730438249529133      1.8641828731967762   0.0097523973700066671
    25   1      5.5730438249529133      1.8641828731967762      3.7186133491261444
    26   1      9.2819047767090535      1.8641828731967762   0.0097523973700066671
    27   1      9.2819047767090535      1.8641828731967762      3.7186133491261444
    28   1   0.0097523973700066671      7.4274743007796848   0.0097523973700066671
    29   1   0.0097523973700066671      7.4274743007796848      3.7186133491261444
    30   1      3.7186133491261444      7.4274743007796848   0.0097523973700066671
    31   1      3.7186133491261444      7.4274743007796848      3.7186133491261444
    32   1   0.0097523973700066671      5.5730438249529133      1.8641828731967762
    33   1   0.0097523973700066671      9.2819047767090535      1.8641828731967762
    34   1      3.7186133491261444      5.5730438249529133      1.8641828731967762
    35   1      3.7186133491261444      9.2819047767090535      1.8641828731967762
    36   1      1.8641828731967762      7.4274743007796848      1.8641828731967762
    37   1      1.8641828731967762      5.5730438249529133   0.0097523973700066671
    38   1      1.8641828731967762      5.5730438249529133      3.7186133491261444
    39   1      1.8641828731967762      9.2819047767090535   0.0097523973700066671
    40   1      1.8641828731967762      9.2819047767090535      3.7186133491261444
    41   1      7.4274743007796848      7.4274743007796848   0.0097523973700066671
    42   1      7.4274743007796848      7.4274743007796848      3.7186133491261444
    43   1      7.4274743007796848      5.5730438249529133      1.8641828731967762
    44   1      7.4274743007796848      9.2819047767090535      1.8641828731967762
    45   1      5.5730438249529133      7.4274743007796848      1.8641828731967762
    46   1      9.2819047767090535      7.4274743007796848      1.8641828731967762
    47   1      5.5730438249529133      5.5730438249529133   0.0097523973700066671
    48   1      5.5730438249529133      5.5730438249529133      3.7186133491261444
    49   1      5.5730438249529133      9.2819047767090535   0.0097523973700066671
    50   1      5.5730438249529133      9.2819047767090535      3.7186133491261444
    51   1      9.2819047767090535      5.5730438249529133   0.0097523973700066671
    52   1      9.2819047767090535      5.5730438249529133      3.7186133491261444
    53   1      9.2819047767090535      9.2819047767090535   0.0097523973700066671
    54   1      9.2819047767090535      9.2819047767090535      3.7186133491261444
    55   1   0.0097523973700066671   0.0097523973700066671      7.4274743007796848
    56   1   0.0097523973700066671      3.7186133491261444      7.4274743007796848
    57   1      3.7186133491261444   0.0097523973700066671      7.4274743007796848
    58   1      3.7186133491261444      3.7186133491261444      7.4274743007796848
    59   1   0.0097523973700066671      1.8641828731967762      5.5730438249529133
    60   1   0.0097523973700066671      1.8641828731967762      9.2819047767090535
    61   1      3.7186133491261444      1.8641828731967762      5.5730438249529133
    62   1      3.7186133491261444      1.8641828731967762      9.2819047767090535
    63   1      1.8641828731967762   0.0097523973700066671      5.5730438249529133
    64   1      1.8641828731967762   0.0097523973700066671      9.2819047767090535
    65   1      1.8641828731967762      3.7186133491261444      5.5730438249529133
    66   1      1.8641828731967762      3.7186133491261444      9.2819047767090535
    67   1      1.8641828731967762      1.8641828731967762      7.4274743007796848
    68   1      7.4274743007796848   0.0097523973700066671      7.4274743007796848
    69   1      7.4274743007796848      3.7186133491261444      7.4274743007796848
    70   1      7.4274743007796848      1.8641828731967762      5.5730438249529133
    71   1      7.4274743007796848      1.8641828731967762      9.2819047767090535
    72   1      5.5730438249529133   0.0097523973700066671      5.5730438249529133
    73   1      5.5730438249529133   0.0097523973700066671      9.2819047767090535
    74   1      5.5730438249529133      3.7186133491261444      5.5730438249529133
    75   1      5.5730438249529133      3.7186133491261444      9.2819047767090535
    76   1      9.2819047767090535   0.0097523973700066671      5.5730438249529133
    77   1      9.2819047767090535   0.0097523973700066671      9.2819047767090535
    78   1      9.2819047767090535      3.7186133491261444      5.5730438249529133
    79   1      9.2819047767090535      3.7186133491261444      9.2819047767090535
    80   1      5.5730438249529133      1.8641828731967762      7.4274743007796848
    81   1      9.2819047767090535      1.8641828731967762      7.4274743007796848
    82   1   0.0097523973700066671      7.4274743007796848      7.4274743007796848
    83   1      3.7186133491261444      7.4274743007796848      7.4274743007796848
    84   1   0.0097523973700066671      5.5730438249529133      5.5730438249529133
    85   1   0.0097523973700066671      5.5730438249529133      9.2819047767090535
    86   1   0.0097523973700066671      9.2819047767090535      5.5730438249529133
    87   1   0.0097523973700066671      9.2819047767090535      9.2819047767090535
    88   1      3.7186133491261444      5.5730438249529133      5.5730438249529133
    89   1      3.7186133491261444      5.5730438249529133      9.2819047767090535
    90   1      3.7186133491261444      9.2819047767090535      5.5730438249529133
    91   1      3.7186133491261444      9.2819047767090535      9.2819047767090535
    92   1      1.8641828731967762      7.4274743007796848      5.5730438249529133
    93   1      1.8641828731967762      7.4274743007796848      9.2819047767090535
    94   1      1.8641828731967762      5.5730438249529133      7.4274743007796848
    95   1      1.8641828731967762      9.2819047767090535      7.4274743007796848
    96   1      7.4274743007796848      7.4274743007796848      7.4274743007796848
    97   1      7.4274743007796848      5.5730438249529133      5.5730438249529133
    98   1      7.4274743007796848      5.5730438249529133      9.2819047767090535
    99   1      7.4274743007796848      9.2819047767090535      5.5730438249529133
   100   1      7.4274743007796848      9.2819047767090535      9.2819047767090535
   101   1      5.5730438249529133      7.4274743007796848      5.5730438249529133
   102   1      5.5730438249529133      7.4274743007796848      9.2819047767090535
   103   1      9.2819047767090535      7.4274743007796848      5.5730438249529133
   104   1      9.2819047767090535      7.4274743007796848      9.2819047767090535
   105   1      5.5730438249529133      5.5730438249529133      7.4274743007796848
   106   1      5.5730438249529133      9.2819047767090535      7.4274743007796848
   107   1      9.2819047767090535      5.5730438249529133      7.4274743007796848
   108   1      9.2819047767090535      9.2819047767090535      7.4274743007796848
